 Entering Gaussian System, Link 0=g16
 Input=Mn_q-1.com
 Output=Mn_q-1.log
 Initial command:
 /aplic/Gaussian/g16_a03/g16/l1.exe "/sgetmp/1513463.1.llarga3d.q/Gau-39058.inp" -scrdir="/sgetmp/1513463.1.llarga3d.q/"
 Entering Link 1 = /aplic/Gaussian/g16_a03/g16/l1.exe PID=     39059.
  
 Copyright (c) 1988,1990,1992,1993,1995,1998,2003,2009,2016,
            Gaussian, Inc.  All Rights Reserved.
  
 This is part of the Gaussian(R) 16 program.  It is based on
 the Gaussian(R) 09 system (copyright 2009, Gaussian, Inc.),
 the Gaussian(R) 03 system (copyright 2003, Gaussian, Inc.),
 the Gaussian(R) 98 system (copyright 1998, Gaussian, Inc.),
 the Gaussian(R) 94 system (copyright 1995, Gaussian, Inc.),
 the Gaussian 92(TM) system (copyright 1992, Gaussian, Inc.),
 the Gaussian 90(TM) system (copyright 1990, Gaussian, Inc.),
 the Gaussian 88(TM) system (copyright 1988, Gaussian, Inc.),
 the Gaussian 86(TM) system (copyright 1986, Carnegie Mellon
 University), and the Gaussian 82(TM) system (copyright 1983,
 Carnegie Mellon University). Gaussian is a federally registered
 trademark of Gaussian, Inc.
  
 This software contains proprietary and confidential information,
 including trade secrets, belonging to Gaussian, Inc.
  
 This software is provided under written license and may be
 used, copied, transmitted, or stored only in accord with that
 written license.
  
 The following legend is applicable only to US Government
 contracts under FAR:
  
                    RESTRICTED RIGHTS LEGEND
  
 Use, reproduction and disclosure by the US Government is
 subject to restrictions as set forth in subparagraphs (a)
 and (c) of the Commercial Computer Software - Restricted
 Rights clause in FAR 52.227-19.
  
 Gaussian, Inc.
 340 Quinnipiac St., Bldg. 40, Wallingford CT 06492
  
  
 ---------------------------------------------------------------
 Warning -- This program may not be used in any manner that
 competes with the business of Gaussian, Inc. or will provide
 assistance to any competitor of Gaussian, Inc.  The licensee
 of this program is prohibited from giving any competitor of
 Gaussian, Inc. access to this program.  By using this program,
 the user acknowledges that Gaussian, Inc. is engaged in the
 business of creating and licensing software in the field of
 computational chemistry and represents and warrants to the
 licensee that it is not a competitor of Gaussian, Inc. and that
 it will not use this program in any manner prohibited above.
 ---------------------------------------------------------------
  

 Cite this work as:
 Gaussian 16, Revision A.03,
 M. J. Frisch, G. W. Trucks, H. B. Schlegel, G. E. Scuseria, 
 M. A. Robb, J. R. Cheeseman, G. Scalmani, V. Barone, 
 G. A. Petersson, H. Nakatsuji, X. Li, M. Caricato, A. V. Marenich, 
 J. Bloino, B. G. Janesko, R. Gomperts, B. Mennucci, H. P. Hratchian, 
 J. V. Ortiz, A. F. Izmaylov, J. L. Sonnenberg, D. Williams-Young, 
 F. Ding, F. Lipparini, F. Egidi, J. Goings, B. Peng, A. Petrone, 
 T. Henderson, D. Ranasinghe, V. G. Zakrzewski, J. Gao, N. Rega, 
 G. Zheng, W. Liang, M. Hada, M. Ehara, K. Toyota, R. Fukuda, 
 J. Hasegawa, M. Ishida, T. Nakajima, Y. Honda, O. Kitao, H. Nakai, 
 T. Vreven, K. Throssell, J. A. Montgomery, Jr., J. E. Peralta, 
 F. Ogliaro, M. J. Bearpark, J. J. Heyd, E. N. Brothers, K. N. Kudin, 
 V. N. Staroverov, T. A. Keith, R. Kobayashi, J. Normand, 
 K. Raghavachari, A. P. Rendell, J. C. Burant, S. S. Iyengar, 
 J. Tomasi, M. Cossi, J. M. Millam, M. Klene, C. Adamo, R. Cammi, 
 J. W. Ochterski, R. L. Martin, K. Morokuma, O. Farkas, 
 J. B. Foresman, and D. J. Fox, Gaussian, Inc., Wallingford CT, 2016.
 
 ******************************************
 Gaussian 16:  ES64L-G16RevA.03 25-Dec-2016
                19-Feb-2026 
 ******************************************
 %nproc=8
 Will use up to    8 processors via shared memory.
 %mem=8GB
 ----------------------------------------------------------------------
 # B3LYP/6-31+G(d,p) empiricaldispersion=GD3 SCRF=(SMD,solvent=acetonit
 rile) SCF=XQC Volume
 ----------------------------------------------------------------------
 1/38=1,172=1/1;
 2/12=2,17=6,18=5,40=1/2;
 3/5=1,6=6,7=111,11=2,25=1,30=1,70=32201,72=2,74=-5,124=31/1,2,3;
 4//1;
 5/5=2,8=3,13=1,38=5,53=2/2,8;
 6/7=2,8=2,9=2,10=2,28=1,44=1/1,4;
 99/5=1,9=1/99;
 ----------------
 Comment - Mn_q-1
 ----------------
 Symbolic Z-matrix:
 Charge = -1 Multiplicity = 1
 25                    0.14448  -0.92708   0.22586 
 6                    -1.41566   0.36637  -0.09383 
 7                    -2.66502   0.20073  -0.63423 
 7                    -1.42087   1.68746   0.28028 
 6                    -2.61773   2.32407  -0.02392 
 6                    -3.40292   1.38096  -0.60604 
 6                    -0.32195   2.25687   1.03692 
 7                     0.92674   2.00569   0.35709 
 6                     1.30308   0.72162   0.01822 
 7                     2.54994   0.92271  -0.5366 
 6                     2.91497   2.26582  -0.53078 
 6                     1.88781   2.95489   0.02978 
 6                     1.53875  -1.95161   0.65653 
 8                     2.43176  -2.66857   0.96559 
 6                    -0.14255  -1.91948  -1.22041 
 8                    -0.27532  -2.69084  -2.12474 
 6                    -0.7102   -1.38449   1.70985 
 1                    -2.79652   3.36403   0.20332 
 1                    -4.40695   1.43929  -0.99802 
 1                    -0.29194   1.76968   2.01972 
 1                    -0.47393   3.32998   1.14541 
 1                     3.85873   2.60636  -0.92926 
 1                     1.75491   4.00843   0.22431 
 6                    -3.16923  -1.04637  -1.19462 
 1                    -2.79068  -1.19711  -2.20941 
 1                    -2.84004  -1.87786  -0.57035 
 1                    -4.26006  -1.00764  -1.21536 
 6                     3.37822  -0.12904  -1.10639 
 1                     4.0806    0.31468  -1.81525 
 1                     3.93546  -0.657    -0.32749 
 1                     2.73444  -0.84578  -1.62196 
 8                    -1.31984  -1.74356   2.67541 
 
                          Input orientation:                          
 ---------------------------------------------------------------------
 Center     Atomic      Atomic             Coordinates (Angstroms)
 Number     Number       Type             X           Y           Z
 ---------------------------------------------------------------------
      1         25           0        0.144483   -0.927078    0.225862
      2          6           0       -1.415659    0.366370   -0.093833
      3          7           0       -2.665015    0.200725   -0.634228
      4          7           0       -1.420867    1.687462    0.280283
      5          6           0       -2.617727    2.324073   -0.023920
      6          6           0       -3.402920    1.380958   -0.606041
      7          6           0       -0.321948    2.256867    1.036922
      8          7           0        0.926737    2.005688    0.357090
      9          6           0        1.303083    0.721624    0.018218
     10          7           0        2.549940    0.922712   -0.536600
     11          6           0        2.914966    2.265816   -0.530782
     12          6           0        1.887805    2.954891    0.029781
     13          6           0        1.538748   -1.951614    0.656531
     14          8           0        2.431758   -2.668571    0.965592
     15          6           0       -0.142545   -1.919483   -1.220413
     16          8           0       -0.275318   -2.690840   -2.124736
     17          6           0       -0.710200   -1.384488    1.709846
     18          1           0       -2.796524    3.364027    0.203320
     19          1           0       -4.406950    1.439290   -0.998017
     20          1           0       -0.291935    1.769680    2.019721
     21          1           0       -0.473926    3.329979    1.145414
     22          1           0        3.858726    2.606358   -0.929264
     23          1           0        1.754906    4.008428    0.224307
     24          6           0       -3.169227   -1.046373   -1.194619
     25          1           0       -2.790683   -1.197113   -2.209406
     26          1           0       -2.840040   -1.877856   -0.570353
     27          1           0       -4.260064   -1.007644   -1.215356
     28          6           0        3.378221   -0.129036   -1.106392
     29          1           0        4.080603    0.314675   -1.815251
     30          1           0        3.935456   -0.657004   -0.327486
     31          1           0        2.734443   -0.845783   -1.621955
     32          8           0       -1.319841   -1.743564    2.675414
 ---------------------------------------------------------------------
                    Distance matrix (angstroms):
                    1          2          3          4          5
     1  Mn   0.000000
     2  C    2.051647   0.000000
     3  N    3.147217   1.371261   0.000000
     4  N    3.047803   1.373053   2.143507   0.000000
     5  C    4.273427   2.298359   2.209823   1.389348   0.000000
     6  C    4.313138   2.289313   1.392210   2.192726   1.358256
     7  C    3.318566   2.459429   3.537008   1.450637   2.529922
     8  N    3.038134   2.894394   4.140204   2.370319   3.579073
     9  C    2.025756   2.744143   4.054975   2.901969   4.235843
    10  N    3.128785   4.028838   5.265601   4.125463   5.378795
    11  C    4.294492   4.749014   5.950755   4.448794   5.556167
    12  C    4.259965   4.198642   5.362323   3.551963   4.549795
    13  C    1.783010   3.829441   4.895942   4.705715   6.001733
    14  O    2.968438   5.013568   6.063776   5.855544   7.169583
    15  C    1.777347   2.848706   3.346902   4.110505   5.056272
    16  O    2.968569   3.843368   4.036510   5.125029   5.920275
    17  C    1.772545   2.610830   3.439315   3.462019   4.516418
    18  H    5.202270   3.313765   3.274944   2.170075   1.079403
    19  H    5.273815   3.304017   2.168115   3.257657   2.221041
    20  H    3.268164   2.774733   3.890575   2.075305   3.145334
    21  H    4.398925   3.347473   4.214288   2.083989   2.641036
    22  H    5.255006   5.790909   6.959405   5.493767   6.545516
    23  H    5.191597   4.839244   5.896727   3.933898   4.692397
    24  C    3.607308   2.506506   1.457231   3.564541   3.610346
    25  H    3.823434   2.968302   2.109723   4.049163   4.147893
    26  H    3.231921   2.700460   2.086915   3.930538   4.243138
    27  H    4.635044   3.352069   2.083758   4.190653   3.900914
    28  C    3.587316   4.924631   6.070616   5.315428   6.568172
    29  H    4.604469   5.759761   6.849172   6.044996   7.219015
    30  H    3.840652   5.453102   6.663033   5.878444   7.205774
    31  H    3.182598   4.585610   5.587927   5.225174   6.422416
    32  O    2.968366   3.482776   4.067368   4.185546   5.051394
                    6          7          8          9         10
     6  C    0.000000
     7  C    3.599852   0.000000
     8  N    4.479268   1.443772   0.000000
     9  C    4.792795   2.456716   1.380323   0.000000
    10  N    5.970875   3.536055   2.146231   1.379461   0.000000
    11  C    6.379994   3.596580   2.192952   2.298716   1.391836
    12  C    5.556375   2.526772   1.389881   2.308574   2.211100
    13  C    6.092635   4.617164   4.015528   2.758475   3.272281
    14  O    7.274076   5.643397   4.948137   3.696599   3.894594
    15  C    4.679787   4.750752   4.363353   3.255686   3.974311
    16  O    5.354238   5.871802   5.446262   4.327645   4.854072
    17  C    4.501307   3.723309   4.000351   3.369068   4.582380
    18  H    2.226060   2.836234   3.966283   4.880915   5.923865
    19  H    1.079409   4.636448   5.532209   5.843993   6.991286
    20  H    4.089494   1.097336   2.074898   2.765595   3.915148
    21  H    3.930049   1.089237   2.082560   3.351395   4.215195
    22  H    7.371403   4.633149   3.257617   3.313798   2.168356
    23  H    5.847756   2.835777   2.171281   3.324108   3.276080
    24  C    2.508580   4.898792   5.338520   4.959672   6.084337
    25  H    3.097106   5.344462   5.537513   5.040117   5.984496
    26  H    3.307261   5.100986   5.489141   4.926376   6.074225
    27  H    2.609862   5.589145   6.201263   5.954887   7.110776
    28  C    6.965221   4.896691   3.564912   2.508898   1.454952
    29  H    7.655212   5.593698   4.186342   3.352884   2.085087
    30  H    7.621197   5.336454   4.075655   2.991574   2.111607
    31  H    6.607396   5.102704   3.913478   2.682485   2.083173
    32  O    4.986963   4.436654   4.947588   4.474100   5.692211
                   11         12         13         14         15
    11  C    0.000000
    12  C    1.357982   0.000000
    13  C    4.592429   4.958674   0.000000
    14  O    5.178880   5.726688   1.186176   0.000000
    15  C    5.228833   5.426309   2.520059   3.459304   0.000000
    16  O    6.106311   6.418358   3.401873   4.108392   1.196002
    17  C    5.611324   5.329396   2.547326   3.474864   3.032304
    18  H    5.862260   4.705364   6.874302   8.019241   6.081620
    19  H    7.383218   6.555712   7.041810   8.215729   5.432860
    20  H    4.127400   3.180543   4.365514   5.312981   4.912302
    21  H    3.927679   2.638769   5.673190   6.667679   5.767478
    22  H    1.079555   2.219408   5.354638   5.783735   6.047989
    23  H    2.225443   1.079557   5.979602   6.752033   6.389653
    24  C    6.959072   6.563752   5.139187   6.218446   3.150205
    25  H    6.882157   6.643895   5.246603   6.286469   2.917629
    26  H    7.091663   6.787350   4.548018   5.547631   2.775030
    27  H    7.916138   7.419457   6.166138   7.231576   4.217279
    28  C    2.506242   3.608716   3.132627   3.411473   3.951518
    29  H    2.610655   3.896569   4.207945   4.399038   4.814590
    30  H    3.102516   4.167289   2.896293   2.824812   4.361337
    31  H    3.302317   4.229675   2.800723   3.179556   3.096955
    32  O    6.654954   6.274061   3.505810   4.225355   4.073628
                   16         17         18         19         20
    16  O    0.000000
    17  C    4.074273   0.000000
    18  H    6.959723   5.400996   0.000000
    19  H    5.949609   5.382583   2.782318   0.000000
    20  H    6.088763   3.196833   3.480549   5.113634   0.000000
    21  H    6.854457   4.754010   2.506624   4.861860   1.797795
    22  H    6.824938   6.615651   6.793317   8.347944   5.159896
    23  H    7.383766   6.112865   4.596869   6.786974   3.524920
    24  C    3.456024   3.820609   4.641634   2.783726   5.151791
    25  H    2.926679   4.441177   5.159969   3.321205   5.738564
    26  H    3.107225   3.158946   5.298849   3.693448   5.148382
    27  H    4.420217   4.615230   4.823494   2.460955   5.824543
    28  C    4.576922   5.120795   7.214174   7.942309   5.181481
    29  H    5.301221   6.185892   7.788970   8.600650   5.995260
    30  H    5.009712   5.124654   7.859389   8.627850   5.410084
    31  H    3.565906   4.822517   7.186496   7.523985   5.409382
    32  O    5.002979   1.197046   5.863389   5.758029   3.718791
                   21         22         23         24         25
    21  H    0.000000
    22  H    4.857961   0.000000
    23  H    2.505279   2.778954   0.000000
    24  C    5.647376   7.924959   7.198017   0.000000
    25  H    6.092351   7.766582   7.326868   1.093531   0.000000
    26  H    5.971926   8.069105   7.509551   1.090613   1.775484
    27  H    6.222785   8.891435   7.963258   1.091721   1.784128
    28  C    5.645746   2.782919   4.639453   6.611987   6.357107
    29  H    6.212997   2.466985   4.817933   7.402545   7.046661
    30  H    6.124387   3.319270   5.179337   7.167988   7.005304
    31  H    5.948861   3.696094   5.285030   5.922514   5.567365
    32  O    5.366313   7.663751   6.967597   4.345510   5.130638
                   26         27         28         29         30
    26  H    0.000000
    27  H    1.785992   0.000000
    28  C    6.481703   7.689423   0.000000
    29  H    7.365614   8.466116   1.092109   0.000000
    30  H    6.888890   8.250928   1.093598   1.782883   0.000000
    31  H    5.765926   7.008184   1.092695   1.787784   1.775872
    32  O    3.586648   4.931996   6.243440   7.318963   6.149485
                   31         32
    31  H    0.000000
    32  O    5.975835   0.000000
 Stoichiometry    C12H12MnN4O3(1-)
 Framework group  C1[X(C12H12MnN4O3)]
 Deg. of freedom    90
 Full point group                 C1      NOp   1
 Largest Abelian subgroup         C1      NOp   1
 Largest concise Abelian subgroup C1      NOp   1
                         Standard orientation:                         
 ---------------------------------------------------------------------
 Center     Atomic      Atomic             Coordinates (Angstroms)
 Number     Number       Type             X           Y           Z
 ---------------------------------------------------------------------
      1         25           0        0.144483   -0.927078    0.225862
      2          6           0       -1.415659    0.366370   -0.093833
      3          7           0       -2.665015    0.200725   -0.634228
      4          7           0       -1.420867    1.687462    0.280283
      5          6           0       -2.617727    2.324073   -0.023920
      6          6           0       -3.402920    1.380957   -0.606041
      7          6           0       -0.321948    2.256867    1.036922
      8          7           0        0.926737    2.005688    0.357090
      9          6           0        1.303083    0.721624    0.018218
     10          7           0        2.549940    0.922712   -0.536600
     11          6           0        2.914966    2.265816   -0.530782
     12          6           0        1.887804    2.954891    0.029781
     13          6           0        1.538748   -1.951614    0.656531
     14          8           0        2.431758   -2.668571    0.965592
     15          6           0       -0.142545   -1.919483   -1.220413
     16          8           0       -0.275318   -2.690840   -2.124736
     17          6           0       -0.710200   -1.384488    1.709846
     18          1           0       -2.796525    3.364027    0.203320
     19          1           0       -4.406950    1.439289   -0.998017
     20          1           0       -0.291935    1.769680    2.019721
     21          1           0       -0.473927    3.329979    1.145414
     22          1           0        3.858726    2.606358   -0.929264
     23          1           0        1.754905    4.008428    0.224307
     24          6           0       -3.169227   -1.046374   -1.194619
     25          1           0       -2.790683   -1.197113   -2.209406
     26          1           0       -2.840040   -1.877856   -0.570353
     27          1           0       -4.260064   -1.007645   -1.215356
     28          6           0        3.378221   -0.129036   -1.106392
     29          1           0        4.080603    0.314675   -1.815251
     30          1           0        3.935456   -0.657004   -0.327486
     31          1           0        2.734443   -0.845783   -1.621955
     32          8           0       -1.319841   -1.743564    2.675414
 ---------------------------------------------------------------------
 Rotational constants (GHZ):           0.3922626           0.3308897           0.2383185
 Standard basis: 6-31+G(d,p) (6D, 7F)
 There are   473 symmetry adapted cartesian basis functions of A   symmetry.
 There are   470 symmetry adapted basis functions of A   symmetry.
   470 basis functions,   809 primitive gaussians,   473 cartesian basis functions
    81 alpha electrons       81 beta electrons
       nuclear repulsion energy      1992.5004539894 Hartrees.
 NAtoms=   32 NActive=   32 NUniq=   32 SFac= 1.00D+00 NAtFMM=   60 NAOKFM=F Big=F
 Integral buffers will be    131072 words long.
 Raffenetti 2 integral format.
 Two-electron integral symmetry is turned on.
 Nuclear repulsion after empirical dispersion term =     1992.4597017636 Hartrees.
 ------------------------------------------------------------------------------
 Polarizable Continuum Model (PCM)
 =================================
 Model                : PCM.
 Atomic radii         : SMD-Coulomb.
 Polarization charges : Total charges.
 Charge compensation  : None.
 Solution method      : On-the-fly selection.
 Cavity type          : VdW (van der Waals Surface) (Alpha=1.000).
 Cavity algorithm     : GePol (No added spheres)
                        Default sphere list used, NSphG=   32.
                        Lebedev-Laikov grids with approx.  5.0 points / Ang**2.
                        Smoothing algorithm: York/Karplus (Gamma=1.0000).
                        Polarization charges: spherical gaussians, with
                                              point-specific exponents (IZeta= 3).
                        Self-potential: point-specific (ISelfS= 7).
                        Self-field    : sphere-specific E.n sum rule (ISelfD= 2).
 Solvent              : Acetonitrile, Eps=  35.688000 Eps(inf)=   1.806874
 ------------------------------------------------------------------------------
 ------------------------------------------------------------------------------
 Atomic radii for non-electrostatic terms: SMD-CDS.
 ------------------------------------------------------------------------------
 Nuclear repulsion after PCM non-electrostatic terms =     1992.4577533387 Hartrees.
 One-electron integrals computed using PRISM.
 NBasis=   470 RedAO= T EigKep=  3.28D-06  NBF=   470
 NBsUse=   468 1.00D-06 EigRej=  9.78D-07 NBFU=   468
 ExpMin= 1.19D-02 ExpMax= 5.63D+04 ExpMxC= 8.46D+03 IAcc=3 IRadAn=         5 AccDes= 0.00D+00
 Harris functional with IExCor=  402 and IRadAn=       5 diagonalized for initial guess.
 HarFok:  IExCor=  402 AccDes= 0.00D+00 IRadAn=         5 IDoV= 1 UseB2=F ITyADJ=14
 ICtDFT=  3500011 ScaDFX=  1.000000  1.000000  1.000000  1.000000
 FoFCou: FMM=F IPFlag=           0 FMFlag=      100000 FMFlg1=           0
         NFxFlg=           0 DoJE=T BraDBF=F KetDBF=T FulRan=T
         wScrn=  0.000000 ICntrl=       500 IOpCl=  0 I1Cent=   200000004 NGrid=           0
         NMat0=    1 NMatS0=      1 NMatT0=    0 NMatD0=    1 NMtDS0=    0 NMtDT0=    0
 Petite list used in FoFCou.
 Requested convergence on RMS density matrix=1.00D-08 within  32 cycles.
 Requested convergence on MAX density matrix=1.00D-06.
 Requested convergence on             energy=1.00D-06.
 No special actions if energy rises.
 Inv3:  Mode=1 IEnd=    21627675.
 Iteration    1 A*A^-1 deviation from unit magnitude is 6.33D-15 for   1012.
 Iteration    1 A*A^-1 deviation from orthogonality  is 4.79D-15 for   1736   1006.
 Iteration    1 A^-1*A deviation from unit magnitude is 5.11D-15 for   1010.
 Iteration    1 A^-1*A deviation from orthogonality  is 1.32D-14 for   2663   1038.
 Error on total polarization charges =  0.04538
 SCF Done:  E(RB3LYP) =  -2060.33104836     A.U. after   18 cycles
            NFock= 18  Conv=0.96D-08     -V/T= 2.0053
 SMD-CDS (non-electrostatic) energy       (kcal/mol) =      -1.22
 (included in total energy above)
 QCSCF skips out because SCF is already converged.

 **********************************************************************

            Population analysis using the SCF density.

 **********************************************************************

 Orbital symmetries:
       Occupied  (A) (A) (A) (A) (A) (A) (A) (A) (A) (A) (A) (A)
                 (A) (A) (A) (A) (A) (A) (A) (A) (A) (A) (A) (A)
                 (A) (A) (A) (A) (A) (A) (A) (A) (A) (A) (A) (A)
                 (A) (A) (A) (A) (A) (A) (A) (A) (A) (A) (A) (A)
                 (A) (A) (A) (A) (A) (A) (A) (A) (A) (A) (A) (A)
                 (A) (A) (A) (A) (A) (A) (A) (A) (A) (A) (A) (A)
                 (A) (A) (A) (A) (A) (A) (A) (A) (A)
       Virtual   (A) (A) (A) (A) (A) (A) (A) (A) (A) (A) (A) (A)
                 (A) (A) (A) (A) (A) (A) (A) (A) (A) (A) (A) (A)
                 (A) (A) (A) (A) (A) (A) (A) (A) (A) (A) (A) (A)
                 (A) (A) (A) (A) (A) (A) (A) (A) (A) (A) (A) (A)
                 (A) (A) (A) (A) (A) (A) (A) (A) (A) (A) (A) (A)
                 (A) (A) (A) (A) (A) (A) (A) (A) (A) (A) (A) (A)
                 (A) (A) (A) (A) (A) (A) (A) (A) (A) (A) (A) (A)
                 (A) (A) (A) (A) (A) (A) (A) (A) (A) (A) (A) (A)
                 (A) (A) (A) (A) (A) (A) (A) (A) (A) (A) (A) (A)
                 (A) (A) (A) (A) (A) (A) (A) (A) (A) (A) (A) (A)
                 (A) (A) (A) (A) (A) (A) (A) (A) (A) (A) (A) (A)
                 (A) (A) (A) (A) (A) (A) (A) (A) (A) (A) (A) (A)
                 (A) (A) (A) (A) (A) (A) (A) (A) (A) (A) (A) (A)
                 (A) (A) (A) (A) (A) (A) (A) (A) (A) (A) (A) (A)
                 (A) (A) (A) (A) (A) (A) (A) (A) (A) (A) (A) (A)
                 (A) (A) (A) (A) (A) (A) (A) (A) (A) (A) (A) (A)
                 (A) (A) (A) (A) (A) (A) (A) (A) (A) (A) (A) (A)
                 (A) (A) (A) (A) (A) (A) (A) (A) (A) (A) (A) (A)
                 (A) (A) (A) (A) (A) (A) (A) (A) (A) (A) (A) (A)
                 (A) (A) (A) (A) (A) (A) (A) (A) (A) (A) (A) (A)
                 (A) (A) (A) (A) (A) (A) (A) (A) (A) (A) (A) (A)
                 (A) (A) (A) (A) (A) (A) (A) (A) (A) (A) (A) (A)
                 (A) (A) (A) (A) (A) (A) (A) (A) (A) (A) (A) (A)
                 (A) (A) (A) (A) (A) (A) (A) (A) (A) (A) (A) (A)
                 (A) (A) (A) (A) (A) (A) (A) (A) (A) (A) (A) (A)
                 (A) (A) (A) (A) (A) (A) (A) (A) (A) (A) (A) (A)
                 (A) (A) (A) (A) (A) (A) (A) (A) (A) (A) (A) (A)
                 (A) (A) (A) (A) (A) (A) (A) (A) (A) (A) (A) (A)
                 (A) (A) (A) (A) (A) (A) (A) (A) (A) (A) (A) (A)
                 (A) (A) (A) (A) (A) (A) (A) (A) (A) (A) (A) (A)
                 (A) (A) (A) (A) (A) (A) (A) (A) (A) (A) (A) (A)
                 (A) (A) (A) (A) (A) (A) (A) (A) (A) (A) (A) (A)
                 (A) (A) (A)
 The electronic state is 1-A.
 Alpha  occ. eigenvalues -- -235.43752 -27.29880 -23.38117 -23.37617 -23.37292
 Alpha  occ. eigenvalues --  -19.15928 -19.14419 -19.14398 -14.38291 -14.38264
 Alpha  occ. eigenvalues --  -14.37853 -14.37777 -10.25882 -10.23370 -10.22255
 Alpha  occ. eigenvalues --  -10.22189 -10.22001 -10.21698 -10.21537 -10.21325
 Alpha  occ. eigenvalues --  -10.21310 -10.21091 -10.20686 -10.20539  -3.09681
 Alpha  occ. eigenvalues --   -1.96260  -1.95655  -1.94635  -1.05203  -1.03275
 Alpha  occ. eigenvalues --   -1.03238  -1.03096  -1.01433  -0.93274  -0.89504
 Alpha  occ. eigenvalues --   -0.78421  -0.75000  -0.73156  -0.70944  -0.67476
 Alpha  occ. eigenvalues --   -0.60817  -0.60204  -0.57635  -0.56089  -0.52437
 Alpha  occ. eigenvalues --   -0.52117  -0.51628  -0.49454  -0.49338  -0.47939
 Alpha  occ. eigenvalues --   -0.45832  -0.45192  -0.44861  -0.44328  -0.43693
 Alpha  occ. eigenvalues --   -0.43417  -0.41841  -0.40798  -0.40560  -0.39711
 Alpha  occ. eigenvalues --   -0.39128  -0.38690  -0.38372  -0.37805  -0.37335
 Alpha  occ. eigenvalues --   -0.37135  -0.37007  -0.36685  -0.36279  -0.35170
 Alpha  occ. eigenvalues --   -0.35104  -0.29403  -0.27882  -0.27754  -0.27455
 Alpha  occ. eigenvalues --   -0.24417  -0.22970  -0.17932  -0.17116  -0.14809
 Alpha  occ. eigenvalues --   -0.12992
 Alpha virt. eigenvalues --   -0.00397   0.01876   0.01937   0.02067   0.02179
 Alpha virt. eigenvalues --    0.02667   0.02980   0.03219   0.03562   0.03997
 Alpha virt. eigenvalues --    0.04119   0.04598   0.04796   0.05037   0.05307
 Alpha virt. eigenvalues --    0.05547   0.05840   0.06049   0.06470   0.06771
 Alpha virt. eigenvalues --    0.06938   0.07023   0.07583   0.07711   0.07899
 Alpha virt. eigenvalues --    0.08119   0.08811   0.09140   0.09635   0.09871
 Alpha virt. eigenvalues --    0.10251   0.10564   0.10759   0.11448   0.11931
 Alpha virt. eigenvalues --    0.12331   0.12767   0.12907   0.13774   0.14393
 Alpha virt. eigenvalues --    0.15037   0.15224   0.15572   0.15788   0.16522
 Alpha virt. eigenvalues --    0.16814   0.17101   0.17241   0.17955   0.18453
 Alpha virt. eigenvalues --    0.18756   0.18949   0.19124   0.19461   0.19676
 Alpha virt. eigenvalues --    0.19896   0.20251   0.20581   0.20911   0.21268
 Alpha virt. eigenvalues --    0.21564   0.22131   0.22523   0.22664   0.23201
 Alpha virt. eigenvalues --    0.23569   0.23804   0.24220   0.24889   0.25102
 Alpha virt. eigenvalues --    0.25438   0.25756   0.26335   0.27173   0.27580
 Alpha virt. eigenvalues --    0.27842   0.28250   0.28564   0.28829   0.29754
 Alpha virt. eigenvalues --    0.29993   0.30618   0.30789   0.31346   0.32051
 Alpha virt. eigenvalues --    0.32362   0.32668   0.32929   0.33784   0.34057
 Alpha virt. eigenvalues --    0.34799   0.34947   0.35067   0.35697   0.35889
 Alpha virt. eigenvalues --    0.36330   0.36732   0.37168   0.37488   0.37678
 Alpha virt. eigenvalues --    0.38520   0.38800   0.39141   0.39489   0.40063
 Alpha virt. eigenvalues --    0.40913   0.41368   0.42605   0.43286   0.43938
 Alpha virt. eigenvalues --    0.44612   0.45491   0.46710   0.47908   0.48132
 Alpha virt. eigenvalues --    0.48303   0.48799   0.49760   0.50277   0.51062
 Alpha virt. eigenvalues --    0.51850   0.53596   0.54403   0.54993   0.56163
 Alpha virt. eigenvalues --    0.58832   0.60351   0.63138   0.65342   0.66634
 Alpha virt. eigenvalues --    0.69192   0.69563   0.70467   0.70923   0.71342
 Alpha virt. eigenvalues --    0.72501   0.72975   0.74957   0.76064   0.77145
 Alpha virt. eigenvalues --    0.78009   0.78135   0.78791   0.81154   0.81971
 Alpha virt. eigenvalues --    0.82837   0.85108   0.85979   0.86328   0.87626
 Alpha virt. eigenvalues --    0.88519   0.88792   0.88972   0.89890   0.90646
 Alpha virt. eigenvalues --    0.91187   0.92163   0.92491   0.93093   0.93934
 Alpha virt. eigenvalues --    0.96072   0.96503   0.97024   0.97912   0.98880
 Alpha virt. eigenvalues --    0.99125   0.99880   1.00127   1.01423   1.01771
 Alpha virt. eigenvalues --    1.03328   1.04341   1.05079   1.06015   1.06592
 Alpha virt. eigenvalues --    1.07900   1.08080   1.08948   1.09990   1.11922
 Alpha virt. eigenvalues --    1.14164   1.14339   1.15047   1.17260   1.19854
 Alpha virt. eigenvalues --    1.22951   1.24628   1.25353   1.27202   1.28614
 Alpha virt. eigenvalues --    1.30871   1.31320   1.32043   1.32602   1.33293
 Alpha virt. eigenvalues --    1.33814   1.34092   1.34479   1.35208   1.35475
 Alpha virt. eigenvalues --    1.36720   1.36750   1.38459   1.38815   1.39697
 Alpha virt. eigenvalues --    1.39858   1.40298   1.42904   1.43180   1.44132
 Alpha virt. eigenvalues --    1.45149   1.47314   1.48496   1.48932   1.49181
 Alpha virt. eigenvalues --    1.50389   1.52790   1.54007   1.54160   1.56150
 Alpha virt. eigenvalues --    1.57708   1.61716   1.61860   1.62917   1.64232
 Alpha virt. eigenvalues --    1.64738   1.66284   1.66362   1.68061   1.68688
 Alpha virt. eigenvalues --    1.69637   1.71164   1.72841   1.73041   1.75096
 Alpha virt. eigenvalues --    1.76045   1.77836   1.78350   1.79817   1.80563
 Alpha virt. eigenvalues --    1.82153   1.84465   1.85099   1.85826   1.88314
 Alpha virt. eigenvalues --    1.88624   1.90832   1.91444   1.92906   1.93334
 Alpha virt. eigenvalues --    1.95025   1.95913   1.96832   1.97305   1.98087
 Alpha virt. eigenvalues --    1.98567   1.99453   2.00032   2.00900   2.01813
 Alpha virt. eigenvalues --    2.02454   2.02771   2.04083   2.04861   2.05277
 Alpha virt. eigenvalues --    2.05918   2.06652   2.08240   2.08746   2.09128
 Alpha virt. eigenvalues --    2.09933   2.10108   2.11073   2.12080   2.13954
 Alpha virt. eigenvalues --    2.14367   2.15333   2.17082   2.17572   2.18795
 Alpha virt. eigenvalues --    2.19546   2.20852   2.22417   2.22955   2.23847
 Alpha virt. eigenvalues --    2.25050   2.27137   2.28113   2.29932   2.31835
 Alpha virt. eigenvalues --    2.34101   2.34712   2.35887   2.37482   2.39366
 Alpha virt. eigenvalues --    2.39856   2.41092   2.41650   2.43032   2.43347
 Alpha virt. eigenvalues --    2.44884   2.47305   2.48515   2.50963   2.51861
 Alpha virt. eigenvalues --    2.53087   2.54752   2.55923   2.56623   2.58406
 Alpha virt. eigenvalues --    2.59683   2.60108   2.61438   2.63539   2.66706
 Alpha virt. eigenvalues --    2.67382   2.68918   2.69589   2.70970   2.73506
 Alpha virt. eigenvalues --    2.74591   2.76282   2.77358   2.77896   2.80078
 Alpha virt. eigenvalues --    2.81098   2.81260   2.84207   2.87209   2.88572
 Alpha virt. eigenvalues --    2.89309   2.90161   2.92218   2.92692   2.93131
 Alpha virt. eigenvalues --    2.95628   2.97496   2.98758   3.00683   3.03996
 Alpha virt. eigenvalues --    3.05356   3.06802   3.10363   3.10910   3.11809
 Alpha virt. eigenvalues --    3.13469   3.20545   3.25235   3.27704   3.27843
 Alpha virt. eigenvalues --    3.28302   3.29123   3.31054   3.32701   3.37611
 Alpha virt. eigenvalues --    3.38570   3.44375   3.48120   3.48907   3.49439
 Alpha virt. eigenvalues --    3.49943   3.53610   3.57502   3.68897   3.80060
 Alpha virt. eigenvalues --    3.81046   3.82797   4.32196   4.37961   4.40648
 Alpha virt. eigenvalues --    4.44943   4.48298   4.49493   4.57223   4.58445
 Alpha virt. eigenvalues --    4.60232   4.62769   4.64973   4.66759   4.71954
 Alpha virt. eigenvalues --    4.78902   4.81211   4.82284   4.91434   5.07633
 Alpha virt. eigenvalues --    5.14647  22.22427
          Condensed to atoms (all electrons):
               1          2          3          4          5          6
     1  Mn  36.548031  -1.493493  -0.056301  -0.317753  -0.244020  -0.119723
     2  C   -1.493493  12.889099  -0.053066   0.083777  -0.234407  -0.159049
     3  N   -0.056301  -0.053066   7.001860  -0.102210  -0.062225   0.256933
     4  N   -0.317753   0.083777  -0.102210   7.315225   0.292844  -0.090860
     5  C   -0.244020  -0.234407  -0.062225   0.292844   6.299394  -0.287571
     6  C   -0.119723  -0.159049   0.256933  -0.090860  -0.287571   6.166823
     7  C   -0.565889  -0.381037  -0.071972   0.161922   0.036861  -0.102757
     8  N   -0.114922   0.085543  -0.040501  -0.186386  -0.077596   0.013910
     9  C   -1.164851  -0.747144   0.025106   0.083314  -0.017399   0.085384
    10  N   -0.220328   0.113371  -0.005039  -0.017667  -0.005991   0.005864
    11  C   -0.027613   0.156406   0.004768   0.013728   0.004581   0.011407
    12  C    0.234054  -0.079552  -0.019947  -0.057545  -0.063365   0.001239
    13  C   -2.988907  -2.582950   0.104323  -0.006758  -0.053905  -0.010483
    14  O   -0.370440   0.007035  -0.000354   0.000150   0.000238  -0.000098
    15  C   -0.928354  -0.438457  -0.030912   0.024675   0.034534  -0.053192
    16  O   -0.595961  -0.116220   0.016702  -0.001561  -0.006300   0.006521
    17  C   -0.817491  -0.157923   0.067472   0.031966  -0.007055   0.050862
    18  H    0.002502   0.011841   0.012126  -0.071464   0.494282  -0.108813
    19  H    0.006552   0.015290  -0.050936  -0.002048  -0.076212   0.444217
    20  H    0.059672  -0.048313   0.000151  -0.059854   0.007452  -0.008797
    21  H   -0.007121  -0.005569  -0.005390  -0.056177   0.001148   0.002326
    22  H   -0.006259   0.000046  -0.000002  -0.000005   0.000092   0.000007
    23  H   -0.003159  -0.002723   0.000050  -0.001645   0.000037  -0.000320
    24  C   -0.084162  -0.290611   0.136452  -0.035317   0.055425  -0.133953
    25  H    0.012673  -0.030536  -0.038276  -0.003247   0.004991  -0.008324
    26  H    0.007132  -0.002570  -0.040413  -0.001769  -0.000840   0.002400
    27  H    0.006706  -0.001013  -0.057977  -0.003403  -0.002818  -0.005906
    28  C   -0.269940  -0.093174  -0.001125  -0.002960  -0.004471  -0.002932
    29  H    0.001581  -0.001263  -0.000007   0.000097   0.000022  -0.000015
    30  H    0.004243   0.001946   0.000002  -0.000028   0.000007   0.000036
    31  H    0.025165  -0.002691   0.000118  -0.000062   0.000009   0.000001
    32  O   -0.561502   0.111055   0.004585   0.008531   0.004475   0.001161
               7          8          9         10         11         12
     1  Mn  -0.565889  -0.114922  -1.164851  -0.220328  -0.027613   0.234054
     2  C   -0.381037   0.085543  -0.747144   0.113371   0.156406  -0.079552
     3  N   -0.071972  -0.040501   0.025106  -0.005039   0.004768  -0.019947
     4  N    0.161922  -0.186386   0.083314  -0.017667   0.013728  -0.057545
     5  C    0.036861  -0.077596  -0.017399  -0.005991   0.004581  -0.063365
     6  C   -0.102757   0.013910   0.085384   0.005864   0.011407   0.001239
     7  C    7.326144   0.188180  -0.904338  -0.017986  -0.105443  -0.046420
     8  N    0.188180   7.473121  -0.266232  -0.155109  -0.218635   0.437833
     9  C   -0.904338  -0.266232   9.494821   0.514411   0.101668  -0.790736
    10  N   -0.017986  -0.155109   0.514411   7.016973   0.239381  -0.123950
    11  C   -0.105443  -0.218635   0.101668   0.239381   6.629203  -0.675728
    12  C   -0.046420   0.437833  -0.790736  -0.123950  -0.675728   6.526768
    13  C   -0.275179  -0.008301   0.599369  -0.265294  -0.222923   0.170801
    14  O    0.005024  -0.001602   0.031120   0.023247   0.018495  -0.012641
    15  C    0.042326   0.111004  -0.591667   0.023373  -0.071696   0.094352
    16  O   -0.001085  -0.001539   0.003016  -0.000938  -0.003899   0.001117
    17  C   -0.167709  -0.008799   0.116378  -0.046695   0.030320  -0.042078
    18  H   -0.013209  -0.002935   0.000649   0.000038  -0.000103   0.000079
    19  H   -0.008747  -0.000084   0.000889  -0.000003   0.000025   0.000112
    20  H    0.476975  -0.066700  -0.023949  -0.000444  -0.004066   0.000532
    21  H    0.478139  -0.052013  -0.017335  -0.004290   0.002006   0.001752
    22  H   -0.007164  -0.000248   0.022527  -0.051122   0.449799  -0.081269
    23  H   -0.012743  -0.068282   0.018928   0.012224  -0.113596   0.494529
    24  C   -0.045557  -0.006022  -0.048636  -0.002383  -0.001298  -0.006304
    25  H   -0.001245   0.000194  -0.002117  -0.000022  -0.000102   0.000139
    26  H   -0.000325  -0.000298   0.004408   0.000009   0.000081  -0.000098
    27  H   -0.000600   0.000004   0.000423   0.000003   0.000013  -0.000009
    28  C   -0.039738  -0.050327  -0.105852   0.130816  -0.134531   0.005618
    29  H   -0.000607  -0.002633  -0.000401  -0.058029  -0.002927  -0.002594
    30  H    0.000244  -0.002751  -0.028900  -0.034065   0.005985  -0.006858
    31  H   -0.003003  -0.003065  -0.018598  -0.050295  -0.008862   0.007766
    32  O    0.004515   0.003146  -0.036704  -0.000186  -0.000466  -0.000594
              13         14         15         16         17         18
     1  Mn  -2.988907  -0.370440  -0.928354  -0.595961  -0.817491   0.002502
     2  C   -2.582950   0.007035  -0.438457  -0.116220  -0.157923   0.011841
     3  N    0.104323  -0.000354  -0.030912   0.016702   0.067472   0.012126
     4  N   -0.006758   0.000150   0.024675  -0.001561   0.031966  -0.071464
     5  C   -0.053905   0.000238   0.034534  -0.006300  -0.007055   0.494282
     6  C   -0.010483  -0.000098  -0.053192   0.006521   0.050862  -0.108813
     7  C   -0.275179   0.005024   0.042326  -0.001085  -0.167709  -0.013209
     8  N   -0.008301  -0.001602   0.111004  -0.001539  -0.008799  -0.002935
     9  C    0.599369   0.031120  -0.591667   0.003016   0.116378   0.000649
    10  N   -0.265294   0.023247   0.023373  -0.000938  -0.046695   0.000038
    11  C   -0.222923   0.018495  -0.071696  -0.003899   0.030320  -0.000103
    12  C    0.170801  -0.012641   0.094352   0.001117  -0.042078   0.000079
    13  C   10.566430   0.478017   0.475353   0.137090  -0.194058   0.000177
    14  O    0.478017   8.271860   0.001291   0.001399   0.085529  -0.000000
    15  C    0.475353   0.001291   7.090665   0.669172  -0.625118   0.000173
    16  O    0.137090   0.001399   0.669172   8.359384   0.011054  -0.000001
    17  C   -0.194058   0.085529  -0.625118   0.011054   6.618811  -0.000984
    18  H    0.000177  -0.000000   0.000173  -0.000001  -0.000984   0.485703
    19  H    0.000133  -0.000000   0.000186   0.000010  -0.000906   0.000087
    20  H    0.003062  -0.000011   0.003026   0.000013  -0.012669  -0.000012
    21  H   -0.001314  -0.000001   0.000202   0.000001  -0.000070   0.001073
    22  H    0.000998   0.000013  -0.000448   0.000001   0.000048  -0.000000
    23  H    0.000985  -0.000001  -0.000453  -0.000000   0.000362   0.000005
    24  C    0.000745   0.000450  -0.016345  -0.023503   0.069819  -0.002327
    25  H    0.003335  -0.000005   0.015991  -0.003878  -0.000594   0.000002
    26  H   -0.005665   0.000013  -0.021828   0.000920  -0.004769   0.000003
    27  H   -0.000062  -0.000000  -0.004289  -0.000120  -0.001094  -0.000008
    28  C    0.244944  -0.032006  -0.051060   0.005909  -0.013567   0.000034
    29  H   -0.000322   0.000044   0.002338  -0.000106  -0.000386   0.000000
    30  H    0.010538  -0.004331  -0.003352   0.000091   0.000647  -0.000000
    31  H    0.006022  -0.000372  -0.020384  -0.000041   0.005093   0.000000
    32  O   -0.075277   0.002708   0.033079   0.000970   0.617905   0.000014
              19         20         21         22         23         24
     1  Mn   0.006552   0.059672  -0.007121  -0.006259  -0.003159  -0.084162
     2  C    0.015290  -0.048313  -0.005569   0.000046  -0.002723  -0.290611
     3  N   -0.050936   0.000151  -0.005390  -0.000002   0.000050   0.136452
     4  N   -0.002048  -0.059854  -0.056177  -0.000005  -0.001645  -0.035317
     5  C   -0.076212   0.007452   0.001148   0.000092   0.000037   0.055425
     6  C    0.444217  -0.008797   0.002326   0.000007  -0.000320  -0.133953
     7  C   -0.008747   0.476975   0.478139  -0.007164  -0.012743  -0.045557
     8  N   -0.000084  -0.066700  -0.052013  -0.000248  -0.068282  -0.006022
     9  C    0.000889  -0.023949  -0.017335   0.022527   0.018928  -0.048636
    10  N   -0.000003  -0.000444  -0.004290  -0.051122   0.012224  -0.002383
    11  C    0.000025  -0.004066   0.002006   0.449799  -0.113596  -0.001298
    12  C    0.000112   0.000532   0.001752  -0.081269   0.494529  -0.006304
    13  C    0.000133   0.003062  -0.001314   0.000998   0.000985   0.000745
    14  O   -0.000000  -0.000011  -0.000001   0.000013  -0.000001   0.000450
    15  C    0.000186   0.003026   0.000202  -0.000448  -0.000453  -0.016345
    16  O    0.000010   0.000013   0.000001   0.000001  -0.000000  -0.023503
    17  C   -0.000906  -0.012669  -0.000070   0.000048   0.000362   0.069819
    18  H    0.000087  -0.000012   0.001073  -0.000000   0.000005  -0.002327
    19  H    0.487675   0.000004  -0.000006  -0.000000  -0.000000  -0.006469
    20  H    0.000004   0.523078  -0.029430   0.000005  -0.000019  -0.000473
    21  H   -0.000006  -0.029430   0.515971  -0.000008   0.001066  -0.000697
    22  H   -0.000000   0.000005  -0.000008   0.490969   0.000118  -0.000001
    23  H   -0.000000  -0.000019   0.001066   0.000118   0.487926   0.000011
    24  C   -0.006469  -0.000473  -0.000697  -0.000001   0.000011   5.368485
    25  H    0.000117   0.000001  -0.000000  -0.000000   0.000000   0.410484
    26  H    0.000074  -0.000003   0.000000   0.000000  -0.000000   0.425620
    27  H    0.000957  -0.000000  -0.000000   0.000000   0.000000   0.428425
    28  C    0.000006   0.000108  -0.000913  -0.005144  -0.001980  -0.001872
    29  H    0.000000   0.000000  -0.000000   0.000938  -0.000009  -0.000014
    30  H   -0.000000  -0.000002   0.000000   0.000135   0.000002   0.000022
    31  H   -0.000000   0.000000  -0.000000   0.000046   0.000003  -0.000022
    32  O    0.000002  -0.001818  -0.000042  -0.000000   0.000000  -0.001710
              25         26         27         28         29         30
     1  Mn   0.012673   0.007132   0.006706  -0.269940   0.001581   0.004243
     2  C   -0.030536  -0.002570  -0.001013  -0.093174  -0.001263   0.001946
     3  N   -0.038276  -0.040413  -0.057977  -0.001125  -0.000007   0.000002
     4  N   -0.003247  -0.001769  -0.003403  -0.002960   0.000097  -0.000028
     5  C    0.004991  -0.000840  -0.002818  -0.004471   0.000022   0.000007
     6  C   -0.008324   0.002400  -0.005906  -0.002932  -0.000015   0.000036
     7  C   -0.001245  -0.000325  -0.000600  -0.039738  -0.000607   0.000244
     8  N    0.000194  -0.000298   0.000004  -0.050327  -0.002633  -0.002751
     9  C   -0.002117   0.004408   0.000423  -0.105852  -0.000401  -0.028900
    10  N   -0.000022   0.000009   0.000003   0.130816  -0.058029  -0.034065
    11  C   -0.000102   0.000081   0.000013  -0.134531  -0.002927   0.005985
    12  C    0.000139  -0.000098  -0.000009   0.005618  -0.002594  -0.006858
    13  C    0.003335  -0.005665  -0.000062   0.244944  -0.000322   0.010538
    14  O   -0.000005   0.000013  -0.000000  -0.032006   0.000044  -0.004331
    15  C    0.015991  -0.021828  -0.004289  -0.051060   0.002338  -0.003352
    16  O   -0.003878   0.000920  -0.000120   0.005909  -0.000106   0.000091
    17  C   -0.000594  -0.004769  -0.001094  -0.013567  -0.000386   0.000647
    18  H    0.000002   0.000003  -0.000008   0.000034   0.000000  -0.000000
    19  H    0.000117   0.000074   0.000957   0.000006   0.000000  -0.000000
    20  H    0.000001  -0.000003  -0.000000   0.000108   0.000000  -0.000002
    21  H   -0.000000   0.000000  -0.000000  -0.000913  -0.000000   0.000000
    22  H   -0.000000   0.000000   0.000000  -0.005144   0.000938   0.000135
    23  H    0.000000  -0.000000   0.000000  -0.001980  -0.000009   0.000002
    24  C    0.410484   0.425620   0.428425  -0.001872  -0.000014   0.000022
    25  H    0.523851  -0.030148  -0.028129  -0.000064   0.000000  -0.000000
    26  H   -0.030148   0.508566  -0.024160   0.000014  -0.000000   0.000000
    27  H   -0.028129  -0.024160   0.528240   0.000004  -0.000000  -0.000000
    28  C   -0.000064   0.000014   0.000004   5.358636   0.422813   0.416536
    29  H    0.000000  -0.000000  -0.000000   0.422813   0.530693  -0.029630
    30  H   -0.000000   0.000000  -0.000000   0.416536  -0.029630   0.527246
    31  H    0.000000  -0.000000   0.000000   0.421597  -0.022831  -0.032257
    32  O    0.000010   0.000025  -0.000126  -0.000791   0.000001  -0.000007
              31         32
     1  Mn   0.025165  -0.561502
     2  C   -0.002691   0.111055
     3  N    0.000118   0.004585
     4  N   -0.000062   0.008531
     5  C    0.000009   0.004475
     6  C    0.000001   0.001161
     7  C   -0.003003   0.004515
     8  N   -0.003065   0.003146
     9  C   -0.018598  -0.036704
    10  N   -0.050295  -0.000186
    11  C   -0.008862  -0.000466
    12  C    0.007766  -0.000594
    13  C    0.006022  -0.075277
    14  O   -0.000372   0.002708
    15  C   -0.020384   0.033079
    16  O   -0.000041   0.000970
    17  C    0.005093   0.617905
    18  H    0.000000   0.000014
    19  H   -0.000000   0.000002
    20  H    0.000000  -0.001818
    21  H   -0.000000  -0.000042
    22  H    0.000046  -0.000000
    23  H    0.000003   0.000000
    24  C   -0.000022  -0.001710
    25  H    0.000000   0.000010
    26  H   -0.000000   0.000025
    27  H    0.000000  -0.000126
    28  C    0.421597  -0.000791
    29  H   -0.022831   0.000001
    30  H   -0.032257  -0.000007
    31  H    0.520009  -0.000001
    32  O   -0.000001   8.343866
 Mulliken charges:
               1
     1  Mn  -0.950122
     2  C   -0.553647
     3  N    0.006005
     4  N    0.002492
     5  C   -0.092217
     6  C    0.043702
     7  C    0.052421
     8  N    0.022046
     9  C   -0.337551
    10  N   -0.019875
    11  C   -0.075977
    12  C    0.032999
    13  C   -0.110924
    14  O   -0.504772
    15  C    0.235816
    16  O   -0.458220
    17  C    0.395699
    18  H    0.191068
    19  H    0.189077
    20  H    0.182483
    21  H    0.176690
    22  H    0.185927
    23  H    0.188683
    24  C   -0.188261
    25  H    0.174903
    26  H    0.183621
    27  H    0.164940
    28  C   -0.194587
    29  H    0.163247
    30  H    0.174503
    31  H    0.176654
    32  O   -0.456824
 Sum of Mulliken charges =  -1.00000
 Mulliken charges with hydrogens summed into heavy atoms:
               1
     1  Mn  -0.950122
     2  C   -0.553647
     3  N    0.006005
     4  N    0.002492
     5  C    0.098851
     6  C    0.232779
     7  C    0.411594
     8  N    0.022046
     9  C   -0.337551
    10  N   -0.019875
    11  C    0.109950
    12  C    0.221682
    13  C   -0.110924
    14  O   -0.504772
    15  C    0.235816
    16  O   -0.458220
    17  C    0.395699
    24  C    0.335204
    28  C    0.319817
    32  O   -0.456824
 Electronic spatial extent (au):  <R**2>=           5052.5150
 Charge=             -1.0000 electrons
 Dipole moment (field-independent basis, Debye):
    X=             -2.3312    Y=             17.9358    Z=             -3.9587  Tot=             18.5148
 Quadrupole moment (field-independent basis, Debye-Ang):
   XX=           -112.3629   YY=           -141.5050   ZZ=           -153.7344
   XY=              4.6370   XZ=              1.1064   YZ=              8.4177
 Traceless Quadrupole moment (field-independent basis, Debye-Ang):
   XX=             23.5045   YY=             -5.6375   ZZ=            -17.8670
   XY=              4.6370   XZ=              1.1064   YZ=              8.4177
 Octapole moment (field-independent basis, Debye-Ang**2):
  XXX=            -31.1841  YYY=            145.2096  ZZZ=            -20.3312  XYY=            -21.8437
  XXY=             47.9932  XXZ=            -66.3677  XZZ=             17.1622  YZZ=             47.9791
  YYZ=             18.0708  XYZ=             -8.6071
 Hexadecapole moment (field-independent basis, Debye-Ang**3):
 XXXX=          -2859.8509 YYYY=          -2488.7039 ZZZZ=          -1201.2478 XXXY=             79.0752
 XXXZ=              0.5651 YYYX=             41.6250 YYYZ=             34.3470 ZZZX=             44.1080
 ZZZY=             35.3791 XXYY=           -967.2451 XXZZ=           -733.9572 YYZZ=           -730.4305
 XXYZ=             21.4036 YYXZ=            -33.8707 ZZXY=            -29.5925
 N-N= 1.992457753339D+03 E-N=-8.863278110538D+03  KE= 2.049430979154D+03
 Evaluate density.
 Using the total density.
 Monte-Carlo method of calculating molar volume:
 based on  0.001 e/bohr**3 density envelope.
 Number of points per bohr**3 =   20 CutOff= 1.00D-04
 Using the SCF density.
 There are       462 points.  Will hold       462 in memory.
 LenV=  1073298664 MDV=  1073741824.
 Box volume =12373.359 fraction occupied=0.182
 Integrated density= 1.0101406842112191D+02 error=-6.0985931578878095D+01
 Molar volume = 2249.702 bohr**3/mol (200.761 cm**3/mol)
 Recommended a0 for SCRF calculation =  5.23 angstrom (  9.89 bohr)
 1\1\GINC-GATCHAN80\SP\RB3LYP\6-31+G(d,p)\C12H12Mn1N4O3(1-)\GPEY\19-Feb
 -2026\0\\# B3LYP/6-31+G(d,p) empiricaldispersion=GD3 SCRF=(SMD,solvent
 =acetonitrile) SCF=XQC Volume\\Comment - Mn_q-1\\-1,1\Mn,0,0.144483,-0
 .927078,0.225862\C,0,-1.415659,0.36637,-0.093833\N,0,-2.665015,0.20072
 5,-0.634228\N,0,-1.420867,1.687462,0.280283\C,0,-2.617727,2.324073,-0.
 02392\C,0,-3.40292,1.380958,-0.606041\C,0,-0.321948,2.256867,1.036922\
 N,0,0.926737,2.005688,0.35709\C,0,1.303083,0.721624,0.018218\N,0,2.549
 94,0.922712,-0.5366\C,0,2.914966,2.265816,-0.530782\C,0,1.887805,2.954
 891,0.029781\C,0,1.538748,-1.951614,0.656531\O,0,2.431758,-2.668571,0.
 965592\C,0,-0.142545,-1.919483,-1.220413\O,0,-0.275318,-2.69084,-2.124
 736\C,0,-0.7102,-1.384488,1.709846\H,0,-2.796524,3.364027,0.20332\H,0,
 -4.40695,1.43929,-0.998017\H,0,-0.291935,1.76968,2.019721\H,0,-0.47392
 6,3.329979,1.145414\H,0,3.858726,2.606358,-0.929264\H,0,1.754906,4.008
 428,0.224307\C,0,-3.169227,-1.046373,-1.194619\H,0,-2.790683,-1.197113
 ,-2.209406\H,0,-2.84004,-1.877856,-0.570353\H,0,-4.260064,-1.007644,-1
 .215356\C,0,3.378221,-0.129036,-1.106392\H,0,4.080603,0.314675,-1.8152
 51\H,0,3.935456,-0.657004,-0.327486\H,0,2.734443,-0.845783,-1.621955\O
 ,0,-1.319841,-1.743564,2.675414\\Version=ES64L-G16RevA.03\State=1-A\HF
 =-2060.3310484\RMSD=9.572e-09\Dipole=-0.9171825,7.0564692,-1.5574718\Q
 uadrupole=17.4750215,-4.1913584,-13.2836631,3.4475109,0.8226004,6.2583
 734\PG=C01 [X(C12H12Mn1N4O3)]\\@


 I LOVE MANKIND - IT'S PEOPLE I CAN'T STAND.
     -- LINUS OF PEANUTS
 Job cpu time:       0 days  0 hours 27 minutes  4.3 seconds.
 Elapsed time:       0 days  0 hours  3 minutes 45.8 seconds.
 File lengths (MBytes):  RWF=    238 Int=      0 D2E=      0 Chk=     15 Scr=      1
 Normal termination of Gaussian 16 at Thu Feb 19 09:13:08 2026.
