 Entering Gaussian System, Link 0=g16
 Input=Mn_q0.com
 Output=Mn_q0.log
 Initial command:
 /aplic/Gaussian/g16_a03/g16/l1.exe "/sgetmp/1513462.1.llarga3d.q/Gau-46023.inp" -scrdir="/sgetmp/1513462.1.llarga3d.q/"
 Entering Link 1 = /aplic/Gaussian/g16_a03/g16/l1.exe PID=     46024.
  
 Copyright (c) 1988,1990,1992,1993,1995,1998,2003,2009,2016,
            Gaussian, Inc.  All Rights Reserved.
  
 This is part of the Gaussian(R) 16 program.  It is based on
 the Gaussian(R) 09 system (copyright 2009, Gaussian, Inc.),
 the Gaussian(R) 03 system (copyright 2003, Gaussian, Inc.),
 the Gaussian(R) 98 system (copyright 1998, Gaussian, Inc.),
 the Gaussian(R) 94 system (copyright 1995, Gaussian, Inc.),
 the Gaussian 92(TM) system (copyright 1992, Gaussian, Inc.),
 the Gaussian 90(TM) system (copyright 1990, Gaussian, Inc.),
 the Gaussian 88(TM) system (copyright 1988, Gaussian, Inc.),
 the Gaussian 86(TM) system (copyright 1986, Carnegie Mellon
 University), and the Gaussian 82(TM) system (copyright 1983,
 Carnegie Mellon University). Gaussian is a federally registered
 trademark of Gaussian, Inc.
  
 This software contains proprietary and confidential information,
 including trade secrets, belonging to Gaussian, Inc.
  
 This software is provided under written license and may be
 used, copied, transmitted, or stored only in accord with that
 written license.
  
 The following legend is applicable only to US Government
 contracts under FAR:
  
                    RESTRICTED RIGHTS LEGEND
  
 Use, reproduction and disclosure by the US Government is
 subject to restrictions as set forth in subparagraphs (a)
 and (c) of the Commercial Computer Software - Restricted
 Rights clause in FAR 52.227-19.
  
 Gaussian, Inc.
 340 Quinnipiac St., Bldg. 40, Wallingford CT 06492
  
  
 ---------------------------------------------------------------
 Warning -- This program may not be used in any manner that
 competes with the business of Gaussian, Inc. or will provide
 assistance to any competitor of Gaussian, Inc.  The licensee
 of this program is prohibited from giving any competitor of
 Gaussian, Inc. access to this program.  By using this program,
 the user acknowledges that Gaussian, Inc. is engaged in the
 business of creating and licensing software in the field of
 computational chemistry and represents and warrants to the
 licensee that it is not a competitor of Gaussian, Inc. and that
 it will not use this program in any manner prohibited above.
 ---------------------------------------------------------------
  

 Cite this work as:
 Gaussian 16, Revision A.03,
 M. J. Frisch, G. W. Trucks, H. B. Schlegel, G. E. Scuseria, 
 M. A. Robb, J. R. Cheeseman, G. Scalmani, V. Barone, 
 G. A. Petersson, H. Nakatsuji, X. Li, M. Caricato, A. V. Marenich, 
 J. Bloino, B. G. Janesko, R. Gomperts, B. Mennucci, H. P. Hratchian, 
 J. V. Ortiz, A. F. Izmaylov, J. L. Sonnenberg, D. Williams-Young, 
 F. Ding, F. Lipparini, F. Egidi, J. Goings, B. Peng, A. Petrone, 
 T. Henderson, D. Ranasinghe, V. G. Zakrzewski, J. Gao, N. Rega, 
 G. Zheng, W. Liang, M. Hada, M. Ehara, K. Toyota, R. Fukuda, 
 J. Hasegawa, M. Ishida, T. Nakajima, Y. Honda, O. Kitao, H. Nakai, 
 T. Vreven, K. Throssell, J. A. Montgomery, Jr., J. E. Peralta, 
 F. Ogliaro, M. J. Bearpark, J. J. Heyd, E. N. Brothers, K. N. Kudin, 
 V. N. Staroverov, T. A. Keith, R. Kobayashi, J. Normand, 
 K. Raghavachari, A. P. Rendell, J. C. Burant, S. S. Iyengar, 
 J. Tomasi, M. Cossi, J. M. Millam, M. Klene, C. Adamo, R. Cammi, 
 J. W. Ochterski, R. L. Martin, K. Morokuma, O. Farkas, 
 J. B. Foresman, and D. J. Fox, Gaussian, Inc., Wallingford CT, 2016.
 
 ******************************************
 Gaussian 16:  ES64L-G16RevA.03 25-Dec-2016
                19-Feb-2026 
 ******************************************
 %nproc=8
 Will use up to    8 processors via shared memory.
 %mem=8GB
 ----------------------------------------------------------------------
 # B3LYP/6-31+G(d,p) empiricaldispersion=GD3 SCRF=(SMD,solvent=acetonit
 rile) SCF=XQC Volume
 ----------------------------------------------------------------------
 1/38=1,172=1/1;
 2/12=2,17=6,18=5,40=1/2;
 3/5=1,6=6,7=111,11=2,25=1,30=1,70=32201,72=2,74=-5,124=31/1,2,3;
 4//1;
 5/5=2,8=3,13=1,38=5,53=2/2,8;
 6/7=2,8=2,9=2,10=2,28=1,44=1/1,4;
 99/5=1,9=1/99;
 ---------------
 Comment - Mn_q0
 ---------------
 Symbolic Z-matrix:
 Charge =  0 Multiplicity = 2
 25                    0.01165  -0.92379   0.2965 
 6                    -1.38289   0.56761   0.06291 
 7                    -2.59739   0.61324  -0.55282 
 7                    -1.20242   1.84749   0.50741 
 6                    -2.26628   2.67344   0.1714 
 6                    -3.14838   1.88886  -0.50163 
 6                    -0.01662   2.24024   1.25032 
 7                     1.17457   1.87125   0.50271 
 6                     1.3739    0.59858   0.0445 
 7                     2.58617   0.67002  -0.57352 
 6                     3.12558   1.94886  -0.49473 
 6                     2.23051   2.7136    0.18445 
 6                     1.32165  -1.98762   0.92593 
 8                     2.15944  -2.70033   1.33722 
 6                    -0.09234  -1.6988   -1.32142 
 8                    -0.16543  -2.24426  -2.36015 
 6                    -1.20914  -1.94535   1.1364 
 1                    -2.29953   3.71645   0.44652 
 1                    -4.10616   2.11712  -0.94377 
 1                    -0.00948   1.72305   2.21275 
 1                    -0.02691   3.31795   1.40307 
 1                     4.0802    2.19622  -0.93339 
 1                     2.24495   3.75585   0.46409 
 6                    -3.22082  -0.49661  -1.26748 
 1                    -2.99316  -0.43399  -2.33564 
 1                    -2.8353   -1.43505  -0.87407 
 1                    -4.30211  -0.45339  -1.12269 
 6                     3.27015  -0.45047  -1.21155 
 1                     3.79604  -0.09201  -2.09879 
 1                     3.98834  -0.90019  -0.52014 
 1                     2.53068  -1.1962   -1.4994 
 8                    -1.99366  -2.62402   1.68891 
 
                          Input orientation:                          
 ---------------------------------------------------------------------
 Center     Atomic      Atomic             Coordinates (Angstroms)
 Number     Number       Type             X           Y           Z
 ---------------------------------------------------------------------
      1         25           0        0.011654   -0.923794    0.296503
      2          6           0       -1.382890    0.567607    0.062913
      3          7           0       -2.597387    0.613238   -0.552823
      4          7           0       -1.202417    1.847491    0.507407
      5          6           0       -2.266283    2.673435    0.171403
      6          6           0       -3.148379    1.888857   -0.501631
      7          6           0       -0.016622    2.240235    1.250323
      8          7           0        1.174567    1.871254    0.502712
      9          6           0        1.373901    0.598581    0.044504
     10          7           0        2.586168    0.670018   -0.573524
     11          6           0        3.125583    1.948857   -0.494729
     12          6           0        2.230507    2.713595    0.184448
     13          6           0        1.321653   -1.987619    0.925929
     14          8           0        2.159438   -2.700333    1.337218
     15          6           0       -0.092343   -1.698796   -1.321415
     16          8           0       -0.165434   -2.244261   -2.360153
     17          6           0       -1.209144   -1.945345    1.136399
     18          1           0       -2.299526    3.716448    0.446524
     19          1           0       -4.106165    2.117120   -0.943774
     20          1           0       -0.009483    1.723054    2.212752
     21          1           0       -0.026908    3.317954    1.403066
     22          1           0        4.080202    2.196223   -0.933392
     23          1           0        2.244953    3.755854    0.464085
     24          6           0       -3.220824   -0.496613   -1.267481
     25          1           0       -2.993159   -0.433986   -2.335640
     26          1           0       -2.835300   -1.435045   -0.874066
     27          1           0       -4.302113   -0.453388   -1.122690
     28          6           0        3.270147   -0.450471   -1.211551
     29          1           0        3.796040   -0.092009   -2.098789
     30          1           0        3.988343   -0.900193   -0.520142
     31          1           0        2.530677   -1.196204   -1.499397
     32          8           0       -1.993664   -2.624023    1.688912
 ---------------------------------------------------------------------
                    Distance matrix (angstroms):
                    1          2          3          4          5
     1  Mn   0.000000
     2  C    2.055138   0.000000
     3  N    3.144983   1.362430   0.000000
     4  N    3.032898   1.366839   2.143224   0.000000
     5  C    4.259660   2.286190   2.208743   1.388126   0.000000
     6  C    4.305094   2.276261   1.390474   2.192404   1.358908
     7  C    3.304792   2.464613   3.543840   1.453369   2.532332
     8  N    3.034334   2.904050   4.113927   2.377107   3.548621
     9  C    2.058360   2.757026   4.015986   2.900253   4.191904
    10  N    3.150445   4.021065   5.183907   4.111962   5.302346
    11  C    4.309841   4.748173   5.877043   4.443662   5.480964
    12  C    4.262213   4.204364   5.316355   3.555194   4.496988
    13  C    1.801110   3.819493   4.930521   4.610223   5.930263
    14  O    2.975257   4.985115   6.097491   5.716061   7.058577
    15  C    1.796970   2.952704   3.494493   4.141619   5.105970
    16  O    2.972005   3.906411   4.164869   5.103006   5.916593
    17  C    1.799817   2.738154   3.365566   3.844643   4.835482
    18  H    5.186126   3.301905   3.273733   2.168030   1.079200
    19  H    5.267056   3.290993   2.165852   3.257358   2.222222
    20  H    3.267761   2.800556   3.946814   2.084893   3.188021
    21  H    4.383879   3.346507   4.212879   2.084775   2.635754
    22  H    5.272592   5.787088   6.873199   5.486673   6.459580
    23  H    5.187949   4.846349   5.861603   3.940569   4.648499
    24  C    3.616275   2.506095   1.459856   3.566373   3.609812
    25  H    4.024548   3.057648   2.105172   4.061380   4.058285
    26  H    3.120378   2.645381   2.086927   3.917884   4.277428
    27  H    4.565520   3.312091   2.090103   4.190391   3.949215
    28  C    3.621607   4.930669   5.999446   5.314064   6.505644
    29  H    4.555312   5.650607   6.615383   5.961417   7.039404
    30  H    4.059744   5.598619   6.757469   5.962350   7.236670
    31  H    3.105631   4.568134   5.519703   5.217982   6.385648
    32  O    2.975043   3.633651   3.983681   4.692170   5.517265
                    6          7          8          9         10
     6  C    0.000000
     7  C    3.605650   0.000000
     8  N    4.438116   1.453960   0.000000
     9  C    4.734352   2.466289   1.367255   0.000000
    10  N    5.863085   3.544928   2.143331   1.362591   0.000000
    11  C    6.274253   3.606045   2.192573   2.276490   1.390182
    12  C    5.484826   2.531748   1.387746   2.286185   2.208444
    13  C    6.086557   4.446455   3.884797   2.732777   3.303088
    14  O    7.253616   5.399259   4.750345   3.629189   3.897730
    15  C    4.783582   4.704842   4.204493   3.048532   3.653087
    16  O    5.425378   5.759200   5.189322   4.029104   4.388209
    17  C    4.598356   4.353638   4.544234   3.786280   4.916132
    18  H    2.227025   2.834951   3.934110   4.834954   5.847328
    19  H    1.079328   4.642583   5.480776   5.771809   6.857004
    20  H    4.153075   1.092610   2.085228   2.807043   3.950902
    21  H    3.926037   1.088538   2.084975   3.347080   4.212676
    22  H    7.247984   4.642684   3.257409   3.291323   2.165859
    23  H    5.788464   2.833724   2.167703   3.301992   3.273445
    24  C    2.506440   4.908827   5.297154   4.902270   5.963536
    25  H    2.963660   5.373115   5.544395   5.079615   5.954223
    26  H    3.359323   5.095651   5.376445   4.764114   5.823567
    27  H    2.683827   5.590369   6.167651   5.889492   7.000860
    28  C    6.868327   4.909539   3.566589   2.504782   1.459589
    29  H    7.395924   5.585007   4.182622   3.307171   2.090672
    30  H    7.662372   5.388560   4.079765   3.066016   2.105827
    31  H    6.539481   5.085155   3.905992   2.634960   2.084012
    32  O    5.147614   5.268972   5.626035   4.942646   6.078173
                   11         12         13         14         15
    11  C    0.000000
    12  C    1.359142   0.000000
    13  C    4.557222   4.845330   0.000000
    14  O    5.089640   5.535752   1.174310   0.000000
    15  C    4.933947   5.208882   2.670835   3.625179   0.000000
    16  O    5.647374   6.065959   3.616024   4.391308   1.175522
    17  C    6.051053   5.868827   2.539885   3.457988   2.710882
    18  H    5.782918   4.647106   6.773415   7.864526   6.109184
    19  H    7.247629   6.463906   7.057328   8.226090   5.551090
    20  H    4.148503   3.180054   4.146918   5.003712   4.919986
    21  H    3.926099   2.635565   5.495032   6.403454   5.709191
    22  H    1.079311   2.222299   5.345204   5.728985   5.721177
    23  H    2.227122   1.079217   5.835518   6.515522   6.197110
    24  C    6.845024   6.490804   5.260061   6.370876   3.351947
    25  H    6.819523   6.598848   5.627540   6.721270   3.323121
    26  H    6.864897   6.632802   4.563505   5.606972   2.791684
    27  H    7.831717   7.376552   6.178790   7.269907   4.394621
    28  C    2.508288   3.611229   3.275404   3.576559   3.588415
    29  H    2.680980   3.941507   4.343368   4.613888   4.278504
    30  H    2.976926   4.079939   3.222554   3.167836   4.234596
    31  H    3.354799   4.267548   2.823169   3.232121   2.676660
    32  O    7.203208   6.971169   3.460994   4.168665   3.678741
                   16         17         18         19         20
    16  O    0.000000
    17  C    3.661223   0.000000
    18  H    6.925448   5.806958   0.000000
    19  H    6.046250   5.405874   2.784730   0.000000
    20  H    6.056019   4.006853   3.512475   5.186689   0.000000
    21  H    6.717086   5.401029   2.497711   4.856954   1.788743
    22  H    6.307057   7.029495   6.701954   8.186756   5.181470
    23  H    7.056038   6.699736   4.544684   6.708518   3.503226
    24  C    3.685595   3.453161   4.640742   2.778528   5.229881
    25  H    3.357637   4.185925   5.044568   3.111947   5.851753
    26  H    3.160929   2.635670   5.344988   3.773305   5.242831
    27  H    4.674468   4.110459   4.884703   2.584167   5.855659
    28  C    4.042300   5.273667   7.150782   7.814999   5.215940
    29  H    4.515947   6.241247   7.624886   8.286082   6.030410
    30  H    4.737723   5.554308   7.860351   8.648971   5.507517
    31  H    3.018002   4.636259   7.159024   7.438717   5.362325
    32  O    4.458876   1.175307   6.468280   5.819977   4.807126
                   21         22         23         24         25
    21  H    0.000000
    22  H    4.856508   0.000000
    23  H    2.496957   2.784516   0.000000
    24  C    5.646578   7.788964   7.138383   0.000000
    25  H    6.070718   7.675724   7.268496   1.093946   0.000000
    26  H    5.971884   7.811133   7.385462   1.088145   1.778549
    27  H    6.235370   8.793149   7.943529   1.091796   1.784653
    28  C    5.648701   2.781825   4.642408   6.491376   6.363399
    29  H    6.205302   2.583584   4.876499   7.077511   6.801931
    30  H    6.133004   3.125221   5.068223   7.259028   7.228745
    31  H    5.945011   3.772261   5.334771   5.798532   5.638532
    32  O    6.265535   8.185542   7.756862   3.843443   4.689592
                   26         27         28         29         30
    26  H    0.000000
    27  H    1.782415   0.000000
    28  C    6.193526   7.572782   0.000000
    29  H    6.875926   8.164769   1.091902   0.000000
    30  H    6.853717   8.324323   1.093664   1.783891   0.000000
    31  H    5.407568   6.883364   1.088939   1.783160   1.780829
    32  O    2.948029   4.236236   6.390987   7.367391   6.605749
                   31         32
    31  H    0.000000
    32  O    5.716086   0.000000
 Stoichiometry    C12H12MnN4O3(2)
 Framework group  C1[X(C12H12MnN4O3)]
 Deg. of freedom    90
 Full point group                 C1      NOp   1
 Largest Abelian subgroup         C1      NOp   1
 Largest concise Abelian subgroup C1      NOp   1
                         Standard orientation:                         
 ---------------------------------------------------------------------
 Center     Atomic      Atomic             Coordinates (Angstroms)
 Number     Number       Type             X           Y           Z
 ---------------------------------------------------------------------
      1         25           0       -0.011654   -0.923794   -0.296503
      2          6           0        1.382890    0.567608   -0.062913
      3          7           0        2.597387    0.613239    0.552823
      4          7           0        1.202416    1.847492   -0.507407
      5          6           0        2.266282    2.673436   -0.171403
      6          6           0        3.148378    1.888858    0.501631
      7          6           0        0.016621    2.240235   -1.250323
      8          7           0       -1.174568    1.871254   -0.502712
      9          6           0       -1.373901    0.598581   -0.044504
     10          7           0       -2.586168    0.670017    0.573524
     11          6           0       -3.125584    1.948856    0.494729
     12          6           0       -2.230508    2.713594   -0.184448
     13          6           0       -1.321652   -1.987619   -0.925929
     14          8           0       -2.159437   -2.700334   -1.337218
     15          6           0        0.092343   -1.698796    1.321415
     16          8           0        0.165435   -2.244261    2.360153
     17          6           0        1.209145   -1.945344   -1.136399
     18          1           0        2.299525    3.716449   -0.446524
     19          1           0        4.106164    2.117122    0.943774
     20          1           0        0.009482    1.723054   -2.212752
     21          1           0        0.026907    3.317954   -1.403066
     22          1           0       -4.080203    2.196222    0.933392
     23          1           0       -2.244954    3.755853   -0.464085
     24          6           0        3.220824   -0.496612    1.267481
     25          1           0        2.993159   -0.433985    2.335640
     26          1           0        2.835300   -1.435044    0.874066
     27          1           0        4.302113   -0.453386    1.122690
     28          6           0       -3.270147   -0.450472    1.211551
     29          1           0       -3.796040   -0.092010    2.098789
     30          1           0       -3.988343   -0.900194    0.520142
     31          1           0       -2.530677   -1.196205    1.499397
     32          8           0        1.993665   -2.624022   -1.688912
 ---------------------------------------------------------------------
 Rotational constants (GHZ):           0.3891652           0.3381953           0.2339829
 Standard basis: 6-31+G(d,p) (6D, 7F)
 There are   473 symmetry adapted cartesian basis functions of A   symmetry.
 There are   470 symmetry adapted basis functions of A   symmetry.
   470 basis functions,   809 primitive gaussians,   473 cartesian basis functions
    81 alpha electrons       80 beta electrons
       nuclear repulsion energy      1990.0505605134 Hartrees.
 NAtoms=   32 NActive=   32 NUniq=   32 SFac= 1.00D+00 NAtFMM=   60 NAOKFM=F Big=F
 Integral buffers will be    131072 words long.
 Raffenetti 2 integral format.
 Two-electron integral symmetry is turned on.
 Nuclear repulsion after empirical dispersion term =     1990.0100266639 Hartrees.
 ------------------------------------------------------------------------------
 Polarizable Continuum Model (PCM)
 =================================
 Model                : PCM.
 Atomic radii         : SMD-Coulomb.
 Polarization charges : Total charges.
 Charge compensation  : None.
 Solution method      : On-the-fly selection.
 Cavity type          : VdW (van der Waals Surface) (Alpha=1.000).
 Cavity algorithm     : GePol (No added spheres)
                        Default sphere list used, NSphG=   32.
                        Lebedev-Laikov grids with approx.  5.0 points / Ang**2.
                        Smoothing algorithm: York/Karplus (Gamma=1.0000).
                        Polarization charges: spherical gaussians, with
                                              point-specific exponents (IZeta= 3).
                        Self-potential: point-specific (ISelfS= 7).
                        Self-field    : sphere-specific E.n sum rule (ISelfD= 2).
 Solvent              : Acetonitrile, Eps=  35.688000 Eps(inf)=   1.806874
 ------------------------------------------------------------------------------
 ------------------------------------------------------------------------------
 Atomic radii for non-electrostatic terms: SMD-CDS.
 ------------------------------------------------------------------------------
 Nuclear repulsion after PCM non-electrostatic terms =     1990.0078709185 Hartrees.
 One-electron integrals computed using PRISM.
 NBasis=   470 RedAO= T EigKep=  1.74D-06  NBF=   470
 NBsUse=   469 1.00D-06 EigRej=  9.39D-07 NBFU=   469
 ExpMin= 1.19D-02 ExpMax= 5.63D+04 ExpMxC= 8.46D+03 IAcc=3 IRadAn=         5 AccDes= 0.00D+00
 Harris functional with IExCor=  402 and IRadAn=       5 diagonalized for initial guess.
 HarFok:  IExCor=  402 AccDes= 0.00D+00 IRadAn=         5 IDoV= 1 UseB2=F ITyADJ=14
 ICtDFT=  3500011 ScaDFX=  1.000000  1.000000  1.000000  1.000000
 FoFCou: FMM=F IPFlag=           0 FMFlag=      100000 FMFlg1=           0
         NFxFlg=           0 DoJE=T BraDBF=F KetDBF=T FulRan=T
         wScrn=  0.000000 ICntrl=       500 IOpCl=  0 I1Cent=   200000004 NGrid=           0
         NMat0=    1 NMatS0=      1 NMatT0=    0 NMatD0=    1 NMtDS0=    0 NMtDT0=    0
 Petite list used in FoFCou.
 Initial guess <Sx>= 0.0000 <Sy>= 0.0000 <Sz>= 0.5000 <S**2>= 0.7500 S= 0.5000
 Requested convergence on RMS density matrix=1.00D-08 within  32 cycles.
 Requested convergence on MAX density matrix=1.00D-06.
 Requested convergence on             energy=1.00D-06.
 No special actions if energy rises.
 Inv3:  Mode=1 IEnd=    21178947.
 Iteration    1 A*A^-1 deviation from unit magnitude is 8.22D-15 for    317.
 Iteration    1 A*A^-1 deviation from orthogonality  is 2.12D-15 for   2656   2604.
 Iteration    1 A^-1*A deviation from unit magnitude is 7.55D-15 for    317.
 Iteration    1 A^-1*A deviation from orthogonality  is 7.17D-13 for    913    902.
 EnCoef did     3 forward-backward iterations
 Restarting incremental Fock formation.
 Error on total polarization charges =  0.04138
 SCF Done:  E(UB3LYP) =  -2060.23770452     A.U. after   27 cycles
            NFock= 27  Conv=0.41D-08     -V/T= 2.0053
 <Sx>= 0.0000 <Sy>= 0.0000 <Sz>= 0.5000 <S**2>= 0.7675 S= 0.5087
 <L.S>= 0.000000000000E+00
 SMD-CDS (non-electrostatic) energy       (kcal/mol) =      -1.35
 (included in total energy above)
 Annihilation of the first spin contaminant:
 S**2 before annihilation     0.7675,   after     0.7502
 QCSCF skips out because SCF is already converged.

 **********************************************************************

            Population analysis using the SCF density.

 **********************************************************************

 Orbital symmetries:
 Alpha Orbitals:
       Occupied  (A) (A) (A) (A) (A) (A) (A) (A) (A) (A) (A) (A)
                 (A) (A) (A) (A) (A) (A) (A) (A) (A) (A) (A) (A)
                 (A) (A) (A) (A) (A) (A) (A) (A) (A) (A) (A) (A)
                 (A) (A) (A) (A) (A) (A) (A) (A) (A) (A) (A) (A)
                 (A) (A) (A) (A) (A) (A) (A) (A) (A) (A) (A) (A)
                 (A) (A) (A) (A) (A) (A) (A) (A) (A) (A) (A) (A)
                 (A) (A) (A) (A) (A) (A) (A) (A) (A)
       Virtual   (A) (A) (A) (A) (A) (A) (A) (A) (A) (A) (A) (A)
                 (A) (A) (A) (A) (A) (A) (A) (A) (A) (A) (A) (A)
                 (A) (A) (A) (A) (A) (A) (A) (A) (A) (A) (A) (A)
                 (A) (A) (A) (A) (A) (A) (A) (A) (A) (A) (A) (A)
                 (A) (A) (A) (A) (A) (A) (A) (A) (A) (A) (A) (A)
                 (A) (A) (A) (A) (A) (A) (A) (A) (A) (A) (A) (A)
                 (A) (A) (A) (A) (A) (A) (A) (A) (A) (A) (A) (A)
                 (A) (A) (A) (A) (A) (A) (A) (A) (A) (A) (A) (A)
                 (A) (A) (A) (A) (A) (A) (A) (A) (A) (A) (A) (A)
                 (A) (A) (A) (A) (A) (A) (A) (A) (A) (A) (A) (A)
                 (A) (A) (A) (A) (A) (A) (A) (A) (A) (A) (A) (A)
                 (A) (A) (A) (A) (A) (A) (A) (A) (A) (A) (A) (A)
                 (A) (A) (A) (A) (A) (A) (A) (A) (A) (A) (A) (A)
                 (A) (A) (A) (A) (A) (A) (A) (A) (A) (A) (A) (A)
                 (A) (A) (A) (A) (A) (A) (A) (A) (A) (A) (A) (A)
                 (A) (A) (A) (A) (A) (A) (A) (A) (A) (A) (A) (A)
                 (A) (A) (A) (A) (A) (A) (A) (A) (A) (A) (A) (A)
                 (A) (A) (A) (A) (A) (A) (A) (A) (A) (A) (A) (A)
                 (A) (A) (A) (A) (A) (A) (A) (A) (A) (A) (A) (A)
                 (A) (A) (A) (A) (A) (A) (A) (A) (A) (A) (A) (A)
                 (A) (A) (A) (A) (A) (A) (A) (A) (A) (A) (A) (A)
                 (A) (A) (A) (A) (A) (A) (A) (A) (A) (A) (A) (A)
                 (A) (A) (A) (A) (A) (A) (A) (A) (A) (A) (A) (A)
                 (A) (A) (A) (A) (A) (A) (A) (A) (A) (A) (A) (A)
                 (A) (A) (A) (A) (A) (A) (A) (A) (A) (A) (A) (A)
                 (A) (A) (A) (A) (A) (A) (A) (A) (A) (A) (A) (A)
                 (A) (A) (A) (A) (A) (A) (A) (A) (A) (A) (A) (A)
                 (A) (A) (A) (A) (A) (A) (A) (A) (A) (A) (A) (A)
                 (A) (A) (A) (A) (A) (A) (A) (A) (A) (A) (A) (A)
                 (A) (A) (A) (A) (A) (A) (A) (A) (A) (A) (A) (A)
                 (A) (A) (A) (A) (A) (A) (A) (A) (A) (A) (A) (A)
                 (A) (A) (A) (A) (A) (A) (A) (A) (A) (A) (A) (A)
                 (A) (A) (A) (A)
 Beta  Orbitals:
       Occupied  (A) (A) (A) (A) (A) (A) (A) (A) (A) (A) (A) (A)
                 (A) (A) (A) (A) (A) (A) (A) (A) (A) (A) (A) (A)
                 (A) (A) (A) (A) (A) (A) (A) (A) (A) (A) (A) (A)
                 (A) (A) (A) (A) (A) (A) (A) (A) (A) (A) (A) (A)
                 (A) (A) (A) (A) (A) (A) (A) (A) (A) (A) (A) (A)
                 (A) (A) (A) (A) (A) (A) (A) (A) (A) (A) (A) (A)
                 (A) (A) (A) (A) (A) (A) (A) (A)
       Virtual   (A) (A) (A) (A) (A) (A) (A) (A) (A) (A) (A) (A)
                 (A) (A) (A) (A) (A) (A) (A) (A) (A) (A) (A) (A)
                 (A) (A) (A) (A) (A) (A) (A) (A) (A) (A) (A) (A)
                 (A) (A) (A) (A) (A) (A) (A) (A) (A) (A) (A) (A)
                 (A) (A) (A) (A) (A) (A) (A) (A) (A) (A) (A) (A)
                 (A) (A) (A) (A) (A) (A) (A) (A) (A) (A) (A) (A)
                 (A) (A) (A) (A) (A) (A) (A) (A) (A) (A) (A) (A)
                 (A) (A) (A) (A) (A) (A) (A) (A) (A) (A) (A) (A)
                 (A) (A) (A) (A) (A) (A) (A) (A) (A) (A) (A) (A)
                 (A) (A) (A) (A) (A) (A) (A) (A) (A) (A) (A) (A)
                 (A) (A) (A) (A) (A) (A) (A) (A) (A) (A) (A) (A)
                 (A) (A) (A) (A) (A) (A) (A) (A) (A) (A) (A) (A)
                 (A) (A) (A) (A) (A) (A) (A) (A) (A) (A) (A) (A)
                 (A) (A) (A) (A) (A) (A) (A) (A) (A) (A) (A) (A)
                 (A) (A) (A) (A) (A) (A) (A) (A) (A) (A) (A) (A)
                 (A) (A) (A) (A) (A) (A) (A) (A) (A) (A) (A) (A)
                 (A) (A) (A) (A) (A) (A) (A) (A) (A) (A) (A) (A)
                 (A) (A) (A) (A) (A) (A) (A) (A) (A) (A) (A) (A)
                 (A) (A) (A) (A) (A) (A) (A) (A) (A) (A) (A) (A)
                 (A) (A) (A) (A) (A) (A) (A) (A) (A) (A) (A) (A)
                 (A) (A) (A) (A) (A) (A) (A) (A) (A) (A) (A) (A)
                 (A) (A) (A) (A) (A) (A) (A) (A) (A) (A) (A) (A)
                 (A) (A) (A) (A) (A) (A) (A) (A) (A) (A) (A) (A)
                 (A) (A) (A) (A) (A) (A) (A) (A) (A) (A) (A) (A)
                 (A) (A) (A) (A) (A) (A) (A) (A) (A) (A) (A) (A)
                 (A) (A) (A) (A) (A) (A) (A) (A) (A) (A) (A) (A)
                 (A) (A) (A) (A) (A) (A) (A) (A) (A) (A) (A) (A)
                 (A) (A) (A) (A) (A) (A) (A) (A) (A) (A) (A) (A)
                 (A) (A) (A) (A) (A) (A) (A) (A) (A) (A) (A) (A)
                 (A) (A) (A) (A) (A) (A) (A) (A) (A) (A) (A) (A)
                 (A) (A) (A) (A) (A) (A) (A) (A) (A) (A) (A) (A)
                 (A) (A) (A) (A) (A) (A) (A) (A) (A) (A) (A) (A)
                 (A) (A) (A) (A) (A)
 The electronic state is 2-A.
 Alpha  occ. eigenvalues -- -235.46995 -27.33469 -23.41340 -23.41126 -23.41094
 Alpha  occ. eigenvalues --  -19.19023 -19.18989 -19.18738 -14.40028 -14.40024
 Alpha  occ. eigenvalues --  -14.39939 -14.39926 -10.27296 -10.26236 -10.26201
 Alpha  occ. eigenvalues --  -10.25936 -10.23637 -10.23579 -10.22678 -10.22671
 Alpha  occ. eigenvalues --  -10.22334 -10.22334 -10.21603 -10.21575  -3.14609
 Alpha  occ. eigenvalues --   -2.01038  -2.00418  -2.00136  -1.08597  -1.08486
 Alpha  occ. eigenvalues --   -1.08208  -1.04967  -1.03422  -0.94928  -0.91217
 Alpha  occ. eigenvalues --   -0.79738  -0.76345  -0.74735  -0.72355  -0.68810
 Alpha  occ. eigenvalues --   -0.62365  -0.61698  -0.59112  -0.57611  -0.54742
 Alpha  occ. eigenvalues --   -0.53740  -0.53055  -0.52674  -0.52583  -0.49477
 Alpha  occ. eigenvalues --   -0.47209  -0.46451  -0.46367  -0.45558  -0.44815
 Alpha  occ. eigenvalues --   -0.44689  -0.44093  -0.43004  -0.42569  -0.42195
 Alpha  occ. eigenvalues --   -0.42113  -0.41823  -0.41050  -0.40826  -0.40485
 Alpha  occ. eigenvalues --   -0.39912  -0.39504  -0.38894  -0.38773  -0.38673
 Alpha  occ. eigenvalues --   -0.38502  -0.31251  -0.30137  -0.29311  -0.29277
 Alpha  occ. eigenvalues --   -0.26266  -0.24337  -0.21611  -0.20735  -0.20386
 Alpha  occ. eigenvalues --   -0.15645
 Alpha virt. eigenvalues --   -0.00633   0.00735   0.00879   0.01007   0.01357
 Alpha virt. eigenvalues --    0.01896   0.01930   0.01975   0.02325   0.02565
 Alpha virt. eigenvalues --    0.02676   0.02755   0.03368   0.03477   0.04019
 Alpha virt. eigenvalues --    0.04117   0.04287   0.04378   0.04974   0.05282
 Alpha virt. eigenvalues --    0.05849   0.06176   0.06537   0.06651   0.07274
 Alpha virt. eigenvalues --    0.07350   0.07592   0.07867   0.09003   0.09166
 Alpha virt. eigenvalues --    0.09415   0.10160   0.10270   0.10978   0.11293
 Alpha virt. eigenvalues --    0.11874   0.11951   0.12309   0.13228   0.13794
 Alpha virt. eigenvalues --    0.14186   0.14218   0.14884   0.15474   0.15860
 Alpha virt. eigenvalues --    0.15951   0.16521   0.16773   0.16869   0.17399
 Alpha virt. eigenvalues --    0.17649   0.17931   0.18524   0.19046   0.19223
 Alpha virt. eigenvalues --    0.19558   0.19661   0.19811   0.20317   0.20670
 Alpha virt. eigenvalues --    0.21107   0.21176   0.21584   0.21971   0.22107
 Alpha virt. eigenvalues --    0.22385   0.23145   0.23520   0.24144   0.24315
 Alpha virt. eigenvalues --    0.24917   0.25232   0.25373   0.26174   0.26506
 Alpha virt. eigenvalues --    0.27231   0.27525   0.27812   0.28194   0.28796
 Alpha virt. eigenvalues --    0.28997   0.29258   0.30126   0.30646   0.31073
 Alpha virt. eigenvalues --    0.31480   0.31715   0.32257   0.32471   0.32831
 Alpha virt. eigenvalues --    0.33007   0.33495   0.33686   0.34034   0.34995
 Alpha virt. eigenvalues --    0.35287   0.35695   0.36044   0.36302   0.36880
 Alpha virt. eigenvalues --    0.37089   0.38115   0.38802   0.39056   0.39277
 Alpha virt. eigenvalues --    0.39913   0.40616   0.40971   0.41941   0.43352
 Alpha virt. eigenvalues --    0.43627   0.44811   0.45371   0.46091   0.47284
 Alpha virt. eigenvalues --    0.47402   0.47605   0.48111   0.48613   0.49104
 Alpha virt. eigenvalues --    0.50603   0.52453   0.53159   0.53485   0.55155
 Alpha virt. eigenvalues --    0.56836   0.57894   0.59051   0.59600   0.62304
 Alpha virt. eigenvalues --    0.65670   0.66885   0.67725   0.68336   0.69888
 Alpha virt. eigenvalues --    0.70717   0.71459   0.73352   0.74133   0.75419
 Alpha virt. eigenvalues --    0.76135   0.77599   0.78752   0.79075   0.80887
 Alpha virt. eigenvalues --    0.81650   0.82155   0.83601   0.83807   0.86003
 Alpha virt. eigenvalues --    0.86442   0.87278   0.87706   0.88176   0.88684
 Alpha virt. eigenvalues --    0.89713   0.90236   0.90253   0.90902   0.92451
 Alpha virt. eigenvalues --    0.93129   0.93746   0.93988   0.95087   0.97215
 Alpha virt. eigenvalues --    0.97797   0.98245   0.98787   0.98964   1.00208
 Alpha virt. eigenvalues --    1.00787   1.01342   1.02471   1.02848   1.04567
 Alpha virt. eigenvalues --    1.06373   1.06685   1.07346   1.07985   1.08281
 Alpha virt. eigenvalues --    1.10801   1.12056   1.13424   1.16762   1.17093
 Alpha virt. eigenvalues --    1.20404   1.20715   1.22488   1.24078   1.26330
 Alpha virt. eigenvalues --    1.26592   1.28632   1.29906   1.30283   1.30568
 Alpha virt. eigenvalues --    1.31398   1.31645   1.32285   1.33049   1.33603
 Alpha virt. eigenvalues --    1.34014   1.34585   1.35088   1.35665   1.36976
 Alpha virt. eigenvalues --    1.37819   1.38328   1.39741   1.41587   1.43982
 Alpha virt. eigenvalues --    1.44786   1.46047   1.46475   1.47012   1.47715
 Alpha virt. eigenvalues --    1.48330   1.49442   1.50182   1.51203   1.52720
 Alpha virt. eigenvalues --    1.54397   1.54932   1.55889   1.58791   1.60413
 Alpha virt. eigenvalues --    1.61319   1.61793   1.63905   1.64169   1.66014
 Alpha virt. eigenvalues --    1.66701   1.70140   1.70592   1.71685   1.72343
 Alpha virt. eigenvalues --    1.72546   1.75011   1.77453   1.78093   1.80035
 Alpha virt. eigenvalues --    1.80571   1.82576   1.82899   1.84340   1.84754
 Alpha virt. eigenvalues --    1.85710   1.86367   1.87527   1.89270   1.89960
 Alpha virt. eigenvalues --    1.92068   1.92702   1.93666   1.94079   1.94858
 Alpha virt. eigenvalues --    1.95953   1.96430   1.97971   1.98711   1.99523
 Alpha virt. eigenvalues --    2.00002   2.00150   2.01491   2.01713   2.02513
 Alpha virt. eigenvalues --    2.03414   2.04526   2.05663   2.06158   2.07336
 Alpha virt. eigenvalues --    2.07938   2.08833   2.09305   2.09878   2.11559
 Alpha virt. eigenvalues --    2.12719   2.13717   2.14505   2.15028   2.16228
 Alpha virt. eigenvalues --    2.18139   2.18358   2.21195   2.21459   2.22104
 Alpha virt. eigenvalues --    2.22712   2.24721   2.25106   2.25980   2.26414
 Alpha virt. eigenvalues --    2.29192   2.31514   2.32535   2.33806   2.34576
 Alpha virt. eigenvalues --    2.35040   2.37735   2.38955   2.39921   2.41210
 Alpha virt. eigenvalues --    2.42171   2.43140   2.44765   2.46098   2.47752
 Alpha virt. eigenvalues --    2.50394   2.50976   2.53370   2.54017   2.55524
 Alpha virt. eigenvalues --    2.57006   2.57997   2.59103   2.59727   2.60200
 Alpha virt. eigenvalues --    2.64116   2.66165   2.67489   2.67981   2.69856
 Alpha virt. eigenvalues --    2.72460   2.72738   2.73385   2.74309   2.76626
 Alpha virt. eigenvalues --    2.78387   2.81130   2.81734   2.82687   2.83042
 Alpha virt. eigenvalues --    2.86635   2.88421   2.88982   2.90025   2.91534
 Alpha virt. eigenvalues --    2.92511   2.92995   2.93538   2.95329   2.97925
 Alpha virt. eigenvalues --    3.00886   3.04690   3.05628   3.07393   3.08901
 Alpha virt. eigenvalues --    3.11458   3.12072   3.17489   3.25916   3.26828
 Alpha virt. eigenvalues --    3.27488   3.28403   3.28775   3.29419   3.31850
 Alpha virt. eigenvalues --    3.37312   3.37986   3.43829   3.46844   3.47788
 Alpha virt. eigenvalues --    3.48393   3.48623   3.52134   3.54815   3.61745
 Alpha virt. eigenvalues --    3.78311   3.80274   3.83705   4.30407   4.35200
 Alpha virt. eigenvalues --    4.43116   4.43943   4.45886   4.47228   4.49121
 Alpha virt. eigenvalues --    4.55149   4.58861   4.63405   4.65318   4.67587
 Alpha virt. eigenvalues --    4.72142   4.74565   4.78991   4.81591   4.95804
 Alpha virt. eigenvalues --    5.06688   5.24532  22.65333
  Beta  occ. eigenvalues -- -235.46954 -27.32235 -23.40479 -23.40335 -23.39631
  Beta  occ. eigenvalues --  -19.18977 -19.18919 -19.18746 -14.39985 -14.39973
  Beta  occ. eigenvalues --  -14.39897 -14.39882 -10.27294 -10.26270 -10.26225
  Beta  occ. eigenvalues --  -10.26004 -10.23687 -10.23626 -10.22667 -10.22661
  Beta  occ. eigenvalues --  -10.22334 -10.22331 -10.21605 -10.21575  -3.11284
  Beta  occ. eigenvalues --   -1.97801  -1.97485  -1.95806  -1.08516  -1.08369
  Beta  occ. eigenvalues --   -1.08192  -1.04912  -1.03372  -0.94853  -0.91133
  Beta  occ. eigenvalues --   -0.79703  -0.76313  -0.74730  -0.72350  -0.68793
  Beta  occ. eigenvalues --   -0.62334  -0.61665  -0.59080  -0.57541  -0.54678
  Beta  occ. eigenvalues --   -0.53714  -0.53024  -0.52611  -0.52507  -0.49384
  Beta  occ. eigenvalues --   -0.47141  -0.46412  -0.46320  -0.45520  -0.44793
  Beta  occ. eigenvalues --   -0.44664  -0.44004  -0.42979  -0.42419  -0.42115
  Beta  occ. eigenvalues --   -0.41904  -0.41813  -0.40952  -0.40700  -0.40440
  Beta  occ. eigenvalues --   -0.39812  -0.38978  -0.38784  -0.38607  -0.38359
  Beta  occ. eigenvalues --   -0.38296  -0.31149  -0.29847  -0.29132  -0.29079
  Beta  occ. eigenvalues --   -0.25775  -0.24222  -0.19887  -0.19229  -0.19027
  Beta virt. eigenvalues --   -0.06448  -0.00600   0.00911   0.01131   0.01558
  Beta virt. eigenvalues --    0.01811   0.01964   0.02045   0.02405   0.02534
  Beta virt. eigenvalues --    0.02787   0.03365   0.03443   0.03508   0.03864
  Beta virt. eigenvalues --    0.04197   0.04340   0.04520   0.04868   0.05384
  Beta virt. eigenvalues --    0.05555   0.06245   0.06462   0.06607   0.07104
  Beta virt. eigenvalues --    0.07317   0.07608   0.07757   0.08070   0.09044
  Beta virt. eigenvalues --    0.09198   0.09431   0.10164   0.10277   0.10991
  Beta virt. eigenvalues --    0.11317   0.11943   0.12114   0.12325   0.13238
  Beta virt. eigenvalues --    0.13804   0.14215   0.14379   0.14952   0.15473
  Beta virt. eigenvalues --    0.15940   0.15990   0.16548   0.16796   0.16898
  Beta virt. eigenvalues --    0.17444   0.17640   0.17979   0.18509   0.19061
  Beta virt. eigenvalues --    0.19237   0.19599   0.19811   0.19857   0.20413
  Beta virt. eigenvalues --    0.20681   0.21126   0.21207   0.21676   0.21979
  Beta virt. eigenvalues --    0.22158   0.22727   0.23241   0.23553   0.24208
  Beta virt. eigenvalues --    0.24368   0.24947   0.25247   0.25436   0.26222
  Beta virt. eigenvalues --    0.26606   0.27259   0.27525   0.27842   0.28423
  Beta virt. eigenvalues --    0.28806   0.29010   0.29335   0.30139   0.30764
  Beta virt. eigenvalues --    0.31111   0.31526   0.31800   0.32294   0.32492
  Beta virt. eigenvalues --    0.32852   0.33125   0.33609   0.33847   0.34105
  Beta virt. eigenvalues --    0.35005   0.35294   0.35709   0.36105   0.36396
  Beta virt. eigenvalues --    0.37105   0.37193   0.38302   0.38927   0.39087
  Beta virt. eigenvalues --    0.39361   0.39961   0.40662   0.41013   0.42012
  Beta virt. eigenvalues --    0.43426   0.43690   0.44887   0.45551   0.46199
  Beta virt. eigenvalues --    0.47324   0.47543   0.47686   0.48160   0.48682
  Beta virt. eigenvalues --    0.49135   0.50689   0.52583   0.53310   0.53622
  Beta virt. eigenvalues --    0.55321   0.57221   0.58288   0.59367   0.60293
  Beta virt. eigenvalues --    0.63034   0.65855   0.66957   0.67748   0.68357
  Beta virt. eigenvalues --    0.69919   0.70790   0.71534   0.73394   0.74166
  Beta virt. eigenvalues --    0.75459   0.76179   0.77655   0.78772   0.79109
  Beta virt. eigenvalues --    0.80922   0.81765   0.82210   0.83631   0.83907
  Beta virt. eigenvalues --    0.86063   0.86501   0.87356   0.87725   0.88188
  Beta virt. eigenvalues --    0.88699   0.89812   0.90254   0.90325   0.90979
  Beta virt. eigenvalues --    0.92487   0.93155   0.93768   0.94009   0.95121
  Beta virt. eigenvalues --    0.97226   0.97829   0.98304   0.98853   0.99001
  Beta virt. eigenvalues --    1.00251   1.00910   1.01415   1.02563   1.02919
  Beta virt. eigenvalues --    1.04632   1.06425   1.06727   1.07406   1.08051
  Beta virt. eigenvalues --    1.08371   1.10864   1.12092   1.13497   1.16801
  Beta virt. eigenvalues --    1.17126   1.20449   1.20800   1.22576   1.24134
  Beta virt. eigenvalues --    1.26394   1.26676   1.28692   1.29969   1.30428
  Beta virt. eigenvalues --    1.30706   1.31478   1.31697   1.32295   1.33106
  Beta virt. eigenvalues --    1.33708   1.34146   1.34681   1.35133   1.35703
  Beta virt. eigenvalues --    1.37086   1.37849   1.38391   1.39757   1.41740
  Beta virt. eigenvalues --    1.44010   1.45086   1.46152   1.46626   1.47182
  Beta virt. eigenvalues --    1.47832   1.48387   1.49739   1.50346   1.51281
  Beta virt. eigenvalues --    1.52852   1.54455   1.55015   1.55932   1.58850
  Beta virt. eigenvalues --    1.60501   1.61454   1.61860   1.64087   1.64281
  Beta virt. eigenvalues --    1.66204   1.66758   1.70292   1.70676   1.71869
  Beta virt. eigenvalues --    1.72540   1.72790   1.75098   1.77614   1.78268
  Beta virt. eigenvalues --    1.80113   1.80728   1.82923   1.83081   1.84590
  Beta virt. eigenvalues --    1.84907   1.86015   1.86637   1.87725   1.89422
  Beta virt. eigenvalues --    1.90068   1.92589   1.93468   1.93780   1.94483
  Beta virt. eigenvalues --    1.94972   1.96017   1.96490   1.98040   1.98810
  Beta virt. eigenvalues --    1.99646   2.00067   2.00228   2.01542   2.01837
  Beta virt. eigenvalues --    2.02654   2.03522   2.04602   2.05809   2.06207
  Beta virt. eigenvalues --    2.07408   2.08013   2.08947   2.09380   2.09976
  Beta virt. eigenvalues --    2.11624   2.12764   2.13808   2.14593   2.15095
  Beta virt. eigenvalues --    2.16361   2.18246   2.18484   2.21309   2.21609
  Beta virt. eigenvalues --    2.22239   2.22859   2.24989   2.25607   2.26205
  Beta virt. eigenvalues --    2.26748   2.29786   2.31940   2.33240   2.34183
  Beta virt. eigenvalues --    2.34724   2.35521   2.38040   2.39235   2.40007
  Beta virt. eigenvalues --    2.41283   2.42597   2.43516   2.45217   2.46308
  Beta virt. eigenvalues --    2.48209   2.50454   2.51052   2.53472   2.54048
  Beta virt. eigenvalues --    2.55574   2.57049   2.58066   2.59135   2.59759
  Beta virt. eigenvalues --    2.60285   2.64212   2.66381   2.67537   2.68031
  Beta virt. eigenvalues --    2.70018   2.72615   2.72870   2.73750   2.74367
  Beta virt. eigenvalues --    2.76721   2.78445   2.81211   2.82028   2.82980
  Beta virt. eigenvalues --    2.83235   2.86750   2.88485   2.89141   2.90189
  Beta virt. eigenvalues --    2.91988   2.92718   2.93207   2.94016   2.95439
  Beta virt. eigenvalues --    2.98233   3.01705   3.04765   3.05715   3.07475
  Beta virt. eigenvalues --    3.08923   3.11638   3.12187   3.18403   3.25953
  Beta virt. eigenvalues --    3.26850   3.27565   3.28439   3.28824   3.29543
  Beta virt. eigenvalues --    3.31872   3.37342   3.38011   3.44093   3.46870
  Beta virt. eigenvalues --    3.47861   3.48464   3.48644   3.52156   3.55631
  Beta virt. eigenvalues --    3.62174   3.78455   3.80288   3.84330   4.30475
  Beta virt. eigenvalues --    4.35257   4.43192   4.44009   4.45907   4.47252
  Beta virt. eigenvalues --    4.49314   4.55238   4.58932   4.63413   4.65344
  Beta virt. eigenvalues --    4.67623   4.72212   4.74589   4.79012   4.81621
  Beta virt. eigenvalues --    4.95825   5.06767   5.24889  22.66660
          Condensed to atoms (all electrons):
               1          2          3          4          5          6
     1  Mn  40.902374  -1.868213  -0.044363   0.016840  -0.320717  -0.366984
     2  C   -1.868213  15.619579  -0.010725   0.337986   0.205944  -0.185486
     3  N   -0.044363  -0.010725   6.892557  -0.150281  -0.105494   0.272725
     4  N    0.016840   0.337986  -0.150281   7.239966   0.392226  -0.116626
     5  C   -0.320717   0.205944  -0.105494   0.392226   6.782762  -0.487316
     6  C   -0.366984  -0.185486   0.272725  -0.116626  -0.487316   6.328809
     7  C   -0.857976  -0.156566  -0.052505   0.087613  -0.106272  -0.019219
     8  N   -0.073022   0.146626  -0.055230  -0.203501  -0.035592  -0.042354
     9  C   -2.433241  -2.591213   0.070732   0.065038  -0.217757   0.078094
    10  N    0.008884  -0.000466   0.005257  -0.043588  -0.035607   0.018080
    11  C   -0.322027  -0.020287   0.019331  -0.032638  -0.049768   0.046124
    12  C   -0.320552  -0.102731  -0.037527  -0.051634  -0.083374  -0.049157
    13  C   -5.840763  -4.750967   0.143862  -0.203732  -0.282158   0.050862
    14  O    0.065095   0.110743  -0.001335   0.004048   0.002996  -0.000628
    15  C   -0.045928   0.052445  -0.064349   0.015836   0.024826  -0.011184
    16  O   -0.027950  -0.104635   0.014374  -0.001174  -0.006264   0.003012
    17  C   -3.584936   0.430102   0.116017  -0.115112  -0.065630   0.226084
    18  H   -0.000815   0.016307   0.009922  -0.067474   0.480382  -0.094923
    19  H   -0.000102   0.019175  -0.056449   0.000838  -0.089952   0.459671
    20  H    0.043355  -0.050581  -0.002421  -0.040153   0.008634  -0.011829
    21  H   -0.019668  -0.000722  -0.004957  -0.056109  -0.001215   0.003172
    22  H   -0.002525  -0.000021   0.000003   0.000076   0.000186   0.000010
    23  H   -0.002295  -0.001716   0.000051  -0.001206   0.000628  -0.000396
    24  C   -0.100401  -0.289690   0.135097  -0.056914   0.007947  -0.124024
    25  H    0.008366  -0.020145  -0.041037  -0.002336   0.006074  -0.011774
    26  H   -0.019749   0.030006  -0.045564  -0.001282   0.001704   0.003485
    27  H    0.004642  -0.016608  -0.042989  -0.002907  -0.005911  -0.002893
    28  C   -0.154750  -0.165839   0.002772  -0.011010  -0.017491   0.001663
    29  H   -0.004661   0.000682  -0.000004   0.000033   0.000012  -0.000028
    30  H    0.023994  -0.000054   0.000017  -0.000027  -0.000039   0.000050
    31  H    0.000536   0.003908  -0.000057   0.000181   0.000178  -0.000010
    32  O   -0.197106  -0.023610   0.009144  -0.000368  -0.004632   0.005431
               7          8          9         10         11         12
     1  Mn  -0.857976  -0.073022  -2.433241   0.008884  -0.322027  -0.320552
     2  C   -0.156566   0.146626  -2.591213  -0.000466  -0.020287  -0.102731
     3  N   -0.052505  -0.055230   0.070732   0.005257   0.019331  -0.037527
     4  N    0.087613  -0.203501   0.065038  -0.043588  -0.032638  -0.051634
     5  C   -0.106272  -0.035592  -0.217757  -0.035607  -0.049768  -0.083374
     6  C   -0.019219  -0.042354   0.078094   0.018080   0.046124  -0.049157
     7  C    6.877514   0.131164  -0.230941  -0.065911  -0.028371  -0.036676
     8  N    0.131164   7.314366   0.215632  -0.188569  -0.162274   0.490616
     9  C   -0.230941   0.215632  13.935919   0.123100  -0.022368  -0.160603
    10  N   -0.065911  -0.188569   0.123100   6.901440   0.273601  -0.144000
    11  C   -0.028371  -0.162274  -0.022368   0.273601   6.501624  -0.711137
    12  C   -0.036676   0.490616  -0.160603  -0.144000  -0.711137   6.995443
    13  C   -0.074860  -0.103642   1.251244   0.052121   0.199215   0.028815
    14  O    0.000818   0.000380  -0.055891   0.011400   0.005190  -0.007625
    15  C   -0.018070   0.023065   0.368548  -0.027290  -0.011090   0.062042
    16  O   -0.001819  -0.000530  -0.085094   0.005885  -0.000111  -0.003125
    17  C   -0.153502  -0.231812  -3.201688   0.127645   0.050743  -0.242105
    18  H   -0.015164  -0.001109  -0.000638   0.000086  -0.000403   0.000334
    19  H   -0.007297   0.000025   0.000661   0.000002   0.000004   0.000210
    20  H    0.442751  -0.045769  -0.021103  -0.001101  -0.006170   0.003906
    21  H    0.487122  -0.051880  -0.012000  -0.004770  -0.000230   0.002485
    22  H   -0.006555   0.001922   0.021078  -0.057525   0.465484  -0.095300
    23  H   -0.012104  -0.067486   0.016823   0.009357  -0.098053   0.482313
    24  C   -0.041475  -0.011156  -0.098964   0.001900   0.000408  -0.014163
    25  H   -0.000112   0.000095   0.001402  -0.000023  -0.000112   0.000106
    26  H   -0.000405  -0.000117   0.001714   0.000007   0.000051  -0.000007
    27  H   -0.000543  -0.000031   0.000276   0.000006   0.000038  -0.000035
    28  C   -0.033248  -0.077608  -0.353305   0.159454  -0.079522  -0.051893
    29  H   -0.000658  -0.003311   0.015325  -0.052469  -0.011994   0.006267
    30  H   -0.000623  -0.002395  -0.069471  -0.026856   0.006525  -0.012815
    31  H   -0.000528  -0.000714  -0.002853  -0.050241  -0.006144   0.005003
    32  O    0.003699   0.004456   0.072071  -0.000752  -0.000423   0.002710
              13         14         15         16         17         18
     1  Mn  -5.840763   0.065095  -0.045928  -0.027950  -3.584936  -0.000815
     2  C   -4.750967   0.110743   0.052445  -0.104635   0.430102   0.016307
     3  N    0.143862  -0.001335  -0.064349   0.014374   0.116017   0.009922
     4  N   -0.203732   0.004048   0.015836  -0.001174  -0.115112  -0.067474
     5  C   -0.282158   0.002996   0.024826  -0.006264  -0.065630   0.480382
     6  C    0.050862  -0.000628  -0.011184   0.003012   0.226084  -0.094923
     7  C   -0.074860   0.000818  -0.018070  -0.001819  -0.153502  -0.015164
     8  N   -0.103642   0.000380   0.023065  -0.000530  -0.231812  -0.001109
     9  C    1.251244  -0.055891   0.368548  -0.085094  -3.201688  -0.000638
    10  N    0.052121   0.011400  -0.027290   0.005885   0.127645   0.000086
    11  C    0.199215   0.005190  -0.011090  -0.000111   0.050743  -0.000403
    12  C    0.028815  -0.007625   0.062042  -0.003125  -0.242105   0.000334
    13  C   15.298522   0.033244  -0.065126  -0.009092  -0.043829  -0.000048
    14  O    0.033244   8.216531   0.023657   0.002990   0.063427  -0.000000
    15  C   -0.065126   0.023657   5.434381   0.440223  -0.481261  -0.000005
    16  O   -0.009092   0.002990   0.440223   8.224332  -0.012551  -0.000000
    17  C   -0.043829   0.063427  -0.481261  -0.012551  12.621801  -0.000297
    18  H   -0.000048  -0.000000  -0.000005  -0.000000  -0.000297   0.474156
    19  H    0.000160  -0.000000   0.000193   0.000007   0.000578   0.000028
    20  H    0.008973  -0.000096  -0.000160   0.000011  -0.000510   0.000032
    21  H   -0.000649  -0.000003   0.000270   0.000001   0.000262   0.001012
    22  H    0.001716   0.000003  -0.000047   0.000004   0.000129   0.000000
    23  H    0.000701  -0.000001  -0.000200  -0.000000  -0.000083   0.000005
    24  C    0.026070  -0.000601  -0.022273  -0.016876   0.198739  -0.001604
    25  H    0.000594  -0.000001   0.003250  -0.001389  -0.005983  -0.000001
    26  H   -0.010104   0.000028  -0.009661   0.000567  -0.004997   0.000003
    27  H    0.000427  -0.000000  -0.003632  -0.000012   0.007533  -0.000005
    28  C    0.357128  -0.038521  -0.049194  -0.010837   0.080708   0.000031
    29  H   -0.010034   0.000231   0.002749  -0.000128  -0.000990   0.000000
    30  H    0.018944  -0.002648  -0.004350   0.000093   0.004796  -0.000000
    31  H   -0.004259  -0.000622   0.002184  -0.000126  -0.003419   0.000000
    32  O    0.081703  -0.000697   0.057228   0.002810   0.240263   0.000000
              19         20         21         22         23         24
     1  Mn  -0.000102   0.043355  -0.019668  -0.002525  -0.002295  -0.100401
     2  C    0.019175  -0.050581  -0.000722  -0.000021  -0.001716  -0.289690
     3  N   -0.056449  -0.002421  -0.004957   0.000003   0.000051   0.135097
     4  N    0.000838  -0.040153  -0.056109   0.000076  -0.001206  -0.056914
     5  C   -0.089952   0.008634  -0.001215   0.000186   0.000628   0.007947
     6  C    0.459671  -0.011829   0.003172   0.000010  -0.000396  -0.124024
     7  C   -0.007297   0.442751   0.487122  -0.006555  -0.012104  -0.041475
     8  N    0.000025  -0.045769  -0.051880   0.001922  -0.067486  -0.011156
     9  C    0.000661  -0.021103  -0.012000   0.021078   0.016823  -0.098964
    10  N    0.000002  -0.001101  -0.004770  -0.057525   0.009357   0.001900
    11  C    0.000004  -0.006170  -0.000230   0.465484  -0.098053   0.000408
    12  C    0.000210   0.003906   0.002485  -0.095300   0.482313  -0.014163
    13  C    0.000160   0.008973  -0.000649   0.001716   0.000701   0.026070
    14  O   -0.000000  -0.000096  -0.000003   0.000003  -0.000001  -0.000601
    15  C    0.000193  -0.000160   0.000270  -0.000047  -0.000200  -0.022273
    16  O    0.000007   0.000011   0.000001   0.000004  -0.000000  -0.016876
    17  C    0.000578  -0.000510   0.000262   0.000129  -0.000083   0.198739
    18  H    0.000028   0.000032   0.001012   0.000000   0.000005  -0.001604
    19  H    0.478205   0.000003  -0.000007  -0.000000  -0.000000  -0.003612
    20  H    0.000003   0.496878  -0.027209   0.000003   0.000025  -0.001005
    21  H   -0.000007  -0.027209   0.496008  -0.000007   0.001070  -0.000682
    22  H   -0.000000   0.000003  -0.000007   0.477896   0.000049   0.000002
    23  H   -0.000000   0.000025   0.001070   0.000049   0.474530   0.000011
    24  C   -0.003612  -0.001005  -0.000682   0.000002   0.000011   5.363744
    25  H    0.000100   0.000001  -0.000000   0.000000   0.000000   0.422409
    26  H    0.000095  -0.000003   0.000000   0.000000  -0.000000   0.412868
    27  H    0.000622  -0.000000  -0.000000   0.000000   0.000000   0.423953
    28  C    0.000008  -0.000071  -0.000860  -0.004033  -0.001696   0.000393
    29  H    0.000000   0.000000  -0.000000   0.000645  -0.000007  -0.000015
    30  H   -0.000000  -0.000002   0.000000   0.000056   0.000000   0.000033
    31  H   -0.000000   0.000001  -0.000000   0.000074   0.000003  -0.000176
    32  O    0.000008  -0.000136  -0.000004  -0.000000  -0.000000  -0.025438
              25         26         27         28         29         30
     1  Mn   0.008366  -0.019749   0.004642  -0.154750  -0.004661   0.023994
     2  C   -0.020145   0.030006  -0.016608  -0.165839   0.000682  -0.000054
     3  N   -0.041037  -0.045564  -0.042989   0.002772  -0.000004   0.000017
     4  N   -0.002336  -0.001282  -0.002907  -0.011010   0.000033  -0.000027
     5  C    0.006074   0.001704  -0.005911  -0.017491   0.000012  -0.000039
     6  C   -0.011774   0.003485  -0.002893   0.001663  -0.000028   0.000050
     7  C   -0.000112  -0.000405  -0.000543  -0.033248  -0.000658  -0.000623
     8  N    0.000095  -0.000117  -0.000031  -0.077608  -0.003311  -0.002395
     9  C    0.001402   0.001714   0.000276  -0.353305   0.015325  -0.069471
    10  N   -0.000023   0.000007   0.000006   0.159454  -0.052469  -0.026856
    11  C   -0.000112   0.000051   0.000038  -0.079522  -0.011994   0.006525
    12  C    0.000106  -0.000007  -0.000035  -0.051893   0.006267  -0.012815
    13  C    0.000594  -0.010104   0.000427   0.357128  -0.010034   0.018944
    14  O   -0.000001   0.000028  -0.000000  -0.038521   0.000231  -0.002648
    15  C    0.003250  -0.009661  -0.003632  -0.049194   0.002749  -0.004350
    16  O   -0.001389   0.000567  -0.000012  -0.010837  -0.000128   0.000093
    17  C   -0.005983  -0.004997   0.007533   0.080708  -0.000990   0.004796
    18  H   -0.000001   0.000003  -0.000005   0.000031   0.000000  -0.000000
    19  H    0.000100   0.000095   0.000622   0.000008   0.000000  -0.000000
    20  H    0.000001  -0.000003  -0.000000  -0.000071   0.000000  -0.000002
    21  H   -0.000000   0.000000  -0.000000  -0.000860  -0.000000   0.000000
    22  H    0.000000   0.000000   0.000000  -0.004033   0.000645   0.000056
    23  H    0.000000  -0.000000   0.000000  -0.001696  -0.000007   0.000000
    24  C    0.422409   0.412868   0.423953   0.000393  -0.000015   0.000033
    25  H    0.513578  -0.026960  -0.029197  -0.000124   0.000000   0.000000
    26  H   -0.026960   0.504555  -0.022972  -0.000031   0.000000  -0.000000
    27  H   -0.029197  -0.022972   0.513097   0.000008   0.000000  -0.000000
    28  C   -0.000124  -0.000031   0.000008   5.393274   0.418490   0.424699
    29  H    0.000000   0.000000   0.000000   0.418490   0.516006  -0.029657
    30  H    0.000000  -0.000000  -0.000000   0.424699  -0.029657   0.511750
    31  H    0.000000  -0.000000  -0.000000   0.415670  -0.022064  -0.027597
    32  O    0.000104   0.000887  -0.000210  -0.001588   0.000000  -0.000003
              31         32
     1  Mn   0.000536  -0.197106
     2  C    0.003908  -0.023610
     3  N   -0.000057   0.009144
     4  N    0.000181  -0.000368
     5  C    0.000178  -0.004632
     6  C   -0.000010   0.005431
     7  C   -0.000528   0.003699
     8  N   -0.000714   0.004456
     9  C   -0.002853   0.072071
    10  N   -0.050241  -0.000752
    11  C   -0.006144  -0.000423
    12  C    0.005003   0.002710
    13  C   -0.004259   0.081703
    14  O   -0.000622  -0.000697
    15  C    0.002184   0.057228
    16  O   -0.000126   0.002810
    17  C   -0.003419   0.240263
    18  H    0.000000   0.000000
    19  H   -0.000000   0.000008
    20  H    0.000001  -0.000136
    21  H   -0.000000  -0.000004
    22  H    0.000074  -0.000000
    23  H    0.000003  -0.000000
    24  C   -0.000176  -0.025438
    25  H    0.000000   0.000104
    26  H   -0.000000   0.000887
    27  H   -0.000000  -0.000210
    28  C    0.415670  -0.001588
    29  H   -0.022064   0.000000
    30  H   -0.027597  -0.000003
    31  H    0.502073   0.000019
    32  O    0.000019   8.203849
          Atomic-Atomic Spin Densities.
               1          2          3          4          5          6
     1  Mn   2.071143  -0.025824  -0.002201  -0.041172  -0.042985   0.022088
     2  C   -0.025824   0.548413  -0.050359   0.018894   0.062983  -0.018645
     3  N   -0.002201  -0.050359   0.044618  -0.000061  -0.002513  -0.008040
     4  N   -0.041172   0.018894  -0.000061   0.038637  -0.011262  -0.000742
     5  C   -0.042985   0.062983  -0.002513  -0.011262  -0.002948   0.016950
     6  C    0.022088  -0.018645  -0.008040  -0.000742   0.016950  -0.011167
     7  C   -0.008087   0.016915   0.000410   0.000569   0.004722  -0.001857
     8  N   -0.047653   0.032898  -0.000281   0.005355   0.001357   0.000889
     9  C   -0.108746  -0.229519  -0.022241   0.038558   0.003928  -0.024921
    10  N    0.017275  -0.014627   0.001286  -0.001233  -0.001120  -0.000047
    11  C    0.031369  -0.015997  -0.001363   0.002848   0.002074  -0.001746
    12  C   -0.046116  -0.007441  -0.000026   0.000617   0.001660   0.000073
    13  C   -0.421099  -0.355694   0.016528  -0.008476  -0.011502   0.003186
    14  O    0.018916   0.006485  -0.000091   0.000079  -0.000037   0.000022
    15  C    0.013847  -0.011170   0.000191  -0.001393  -0.003506   0.003157
    16  O   -0.051988  -0.021865   0.004502  -0.000575  -0.000846  -0.000142
    17  C   -0.336197   0.006920   0.031394  -0.030847  -0.013864   0.026939
    18  H   -0.000709   0.000163   0.000093   0.000077   0.000414  -0.000212
    19  H    0.000189  -0.000059   0.000141  -0.000036  -0.000264   0.000078
    20  H    0.009375  -0.001568   0.000006  -0.003012   0.000205   0.000326
    21  H    0.002713  -0.000494   0.000041  -0.001414  -0.000441   0.000307
    22  H    0.000157   0.000030   0.000001  -0.000009  -0.000007  -0.000001
    23  H   -0.000726   0.000194  -0.000001   0.000102   0.000028  -0.000003
    24  C   -0.024235   0.021379  -0.001361  -0.002004   0.002798   0.001036
    25  H   -0.000201   0.002045  -0.001685  -0.000017   0.000474   0.000150
    26  H   -0.001179   0.000624   0.000412   0.000006   0.000001   0.000004
    27  H    0.000523   0.000022   0.000016  -0.000014  -0.000097  -0.000023
    28  C   -0.029659  -0.018835   0.000407   0.000301  -0.000351  -0.000162
    29  H    0.000019   0.000143  -0.000003   0.000007   0.000006   0.000001
    30  H    0.000053  -0.000100   0.000003  -0.000007  -0.000002   0.000000
    31  H    0.004860   0.001083  -0.000038   0.000030   0.000021  -0.000001
    32  O    0.014321   0.011648  -0.001614   0.001307   0.000822  -0.000961
               7          8          9         10         11         12
     1  Mn  -0.008087  -0.047653  -0.108746   0.017275   0.031369  -0.046116
     2  C    0.016915   0.032898  -0.229519  -0.014627  -0.015997  -0.007441
     3  N    0.000410  -0.000281  -0.022241   0.001286  -0.001363  -0.000026
     4  N    0.000569   0.005355   0.038558  -0.001233   0.002848   0.000617
     5  C    0.004722   0.001357   0.003928  -0.001120   0.002074   0.001660
     6  C   -0.001857   0.000889  -0.024921  -0.000047  -0.001746   0.000073
     7  C    0.006758   0.002190   0.013200  -0.001657  -0.004915   0.008902
     8  N    0.002190   0.042527   0.037339  -0.000777   0.001996  -0.014099
     9  C    0.013200   0.037339   0.438686  -0.056210  -0.026266   0.064753
    10  N   -0.001657  -0.000777  -0.056210   0.043064  -0.008536  -0.005478
    11  C   -0.004915   0.001996  -0.026266  -0.008536  -0.021028   0.023382
    12  C    0.008902  -0.014099   0.064753  -0.005478   0.023382  -0.007069
    13  C   -0.010799  -0.030592   0.098001   0.019672   0.013950   0.001332
    14  O    0.000215   0.000954   0.004551  -0.000770  -0.000137  -0.000195
    15  C    0.004471  -0.002667   0.012288  -0.001662   0.002296  -0.002437
    16  O    0.000127  -0.000269  -0.014207   0.001946  -0.001095   0.000202
    17  C   -0.013934  -0.016331  -0.280235   0.019153   0.005750  -0.011726
    18  H   -0.000119   0.000014   0.000285  -0.000003   0.000037  -0.000013
    19  H   -0.000024  -0.000004  -0.000024   0.000001  -0.000005   0.000000
    20  H   -0.002443  -0.002147  -0.003048  -0.000053  -0.000342   0.001268
    21  H   -0.000495  -0.000963  -0.000930   0.000102  -0.000334   0.000334
    22  H   -0.000016  -0.000079  -0.000066   0.000261  -0.000758   0.000685
    23  H   -0.000206   0.000118   0.000415  -0.000076   0.000959  -0.000783
    24  C   -0.002047   0.000376  -0.015882   0.000387  -0.000082  -0.000340
    25  H    0.000005  -0.000000   0.000060  -0.000008   0.000008  -0.000004
    26  H    0.000062   0.000006  -0.000087   0.000002  -0.000006   0.000005
    27  H   -0.000003   0.000002   0.000091  -0.000000   0.000001   0.000002
    28  C   -0.003435  -0.002355   0.012699   0.002377   0.003452   0.000409
    29  H    0.000011   0.000029   0.000509  -0.000695   0.000654  -0.000090
    30  H   -0.000008  -0.000074  -0.000870  -0.000053  -0.000037  -0.000024
    31  H    0.000041   0.000139   0.000846  -0.001289   0.000094   0.000052
    32  O    0.000435   0.000092   0.005898  -0.000097   0.000060  -0.000123
              13         14         15         16         17         18
     1  Mn  -0.421099   0.018916   0.013847  -0.051988  -0.336197  -0.000709
     2  C   -0.355694   0.006485  -0.011170  -0.021865   0.006920   0.000163
     3  N    0.016528  -0.000091   0.000191   0.004502   0.031394   0.000093
     4  N   -0.008476   0.000079  -0.001393  -0.000575  -0.030847   0.000077
     5  C   -0.011502  -0.000037  -0.003506  -0.000846  -0.013864   0.000414
     6  C    0.003186   0.000022   0.003157  -0.000142   0.026939  -0.000212
     7  C   -0.010799   0.000215   0.004471   0.000127  -0.013934  -0.000119
     8  N   -0.030592   0.000954  -0.002667  -0.000269  -0.016331   0.000014
     9  C    0.098001   0.004551   0.012288  -0.014207  -0.280235   0.000285
    10  N    0.019672  -0.000770  -0.001662   0.001946   0.019153  -0.000003
    11  C    0.013950  -0.000137   0.002296  -0.001095   0.005750   0.000037
    12  C    0.001332  -0.000195  -0.002437   0.000202  -0.011726  -0.000013
    13  C    0.574024  -0.040534   0.025163   0.021653   0.133569  -0.000026
    14  O   -0.040534   0.030118  -0.003066  -0.000604  -0.012553   0.000000
    15  C    0.025163  -0.003066  -0.070480  -0.027730   0.006998  -0.000010
    16  O    0.021653  -0.000604  -0.027730   0.042128   0.021210  -0.000000
    17  C    0.133569  -0.012553   0.006998   0.021210   0.538668  -0.000115
    18  H   -0.000026   0.000000  -0.000010  -0.000000  -0.000115  -0.000093
    19  H    0.000008  -0.000000   0.000015   0.000001  -0.000002  -0.000015
    20  H    0.001332  -0.000047   0.000098   0.000008   0.001595  -0.000020
    21  H    0.000290  -0.000001   0.000019   0.000001   0.000265  -0.000074
    22  H   -0.000059   0.000000   0.000007   0.000000   0.000002  -0.000000
    23  H   -0.000121   0.000001  -0.000006  -0.000000  -0.000032   0.000001
    24  C   -0.006972   0.000048  -0.000678  -0.000650   0.020080   0.000032
    25  H   -0.000215   0.000000  -0.000030  -0.000312  -0.000332   0.000000
    26  H   -0.000228   0.000002   0.000533   0.000149  -0.000500  -0.000000
    27  H   -0.000008   0.000000  -0.000018  -0.000001  -0.000489   0.000000
    28  C    0.025277  -0.000196   0.002416   0.000427  -0.001254   0.000001
    29  H   -0.000459   0.000002  -0.000076  -0.000037  -0.000066   0.000000
    30  H    0.000665   0.000098   0.000084   0.000036   0.000147  -0.000000
    31  H   -0.002941  -0.000083   0.000164  -0.000786  -0.000487   0.000000
    32  O   -0.014856   0.000725  -0.002181  -0.000621  -0.050286   0.000001
              19         20         21         22         23         24
     1  Mn   0.000189   0.009375   0.002713   0.000157  -0.000726  -0.024235
     2  C   -0.000059  -0.001568  -0.000494   0.000030   0.000194   0.021379
     3  N    0.000141   0.000006   0.000041   0.000001  -0.000001  -0.001361
     4  N   -0.000036  -0.003012  -0.001414  -0.000009   0.000102  -0.002004
     5  C   -0.000264   0.000205  -0.000441  -0.000007   0.000028   0.002798
     6  C    0.000078   0.000326   0.000307  -0.000001  -0.000003   0.001036
     7  C   -0.000024  -0.002443  -0.000495  -0.000016  -0.000206  -0.002047
     8  N   -0.000004  -0.002147  -0.000963  -0.000079   0.000118   0.000376
     9  C   -0.000024  -0.003048  -0.000930  -0.000066   0.000415  -0.015882
    10  N    0.000001  -0.000053   0.000102   0.000261  -0.000076   0.000387
    11  C   -0.000005  -0.000342  -0.000334  -0.000758   0.000959  -0.000082
    12  C    0.000000   0.001268   0.000334   0.000685  -0.000783  -0.000340
    13  C    0.000008   0.001332   0.000290  -0.000059  -0.000121  -0.006972
    14  O   -0.000000  -0.000047  -0.000001   0.000000   0.000001   0.000048
    15  C    0.000015   0.000098   0.000019   0.000007  -0.000006  -0.000678
    16  O    0.000001   0.000008   0.000001   0.000000  -0.000000  -0.000650
    17  C   -0.000002   0.001595   0.000265   0.000002  -0.000032   0.020080
    18  H   -0.000015  -0.000020  -0.000074  -0.000000   0.000001   0.000032
    19  H   -0.000151   0.000000   0.000000   0.000000  -0.000000   0.000005
    20  H    0.000000   0.002397   0.000527   0.000000  -0.000022  -0.000043
    21  H    0.000000   0.000527   0.001207   0.000000  -0.000080   0.000004
    22  H    0.000000   0.000000   0.000000  -0.000345  -0.000007   0.000000
    23  H   -0.000000  -0.000022  -0.000080  -0.000007  -0.000001   0.000002
    24  C    0.000005  -0.000043   0.000004   0.000000   0.000002   0.006612
    25  H   -0.000010  -0.000000  -0.000000  -0.000000   0.000000   0.000165
    26  H    0.000001   0.000000   0.000000   0.000000  -0.000000  -0.000104
    27  H   -0.000005  -0.000000  -0.000000  -0.000000   0.000000   0.000017
    28  C    0.000000  -0.000058   0.000005  -0.000085   0.000040  -0.000125
    29  H   -0.000000  -0.000000  -0.000000  -0.000006   0.000000  -0.000000
    30  H    0.000000   0.000000   0.000000   0.000006  -0.000000   0.000001
    31  H   -0.000000  -0.000000  -0.000000  -0.000001   0.000000   0.000002
    32  O   -0.000000  -0.000075  -0.000002  -0.000000   0.000000  -0.000514
              25         26         27         28         29         30
     1  Mn  -0.000201  -0.001179   0.000523  -0.029659   0.000019   0.000053
     2  C    0.002045   0.000624   0.000022  -0.018835   0.000143  -0.000100
     3  N   -0.001685   0.000412   0.000016   0.000407  -0.000003   0.000003
     4  N   -0.000017   0.000006  -0.000014   0.000301   0.000007  -0.000007
     5  C    0.000474   0.000001  -0.000097  -0.000351   0.000006  -0.000002
     6  C    0.000150   0.000004  -0.000023  -0.000162   0.000001   0.000000
     7  C    0.000005   0.000062  -0.000003  -0.003435   0.000011  -0.000008
     8  N   -0.000000   0.000006   0.000002  -0.002355   0.000029  -0.000074
     9  C    0.000060  -0.000087   0.000091   0.012699   0.000509  -0.000870
    10  N   -0.000008   0.000002  -0.000000   0.002377  -0.000695  -0.000053
    11  C    0.000008  -0.000006   0.000001   0.003452   0.000654  -0.000037
    12  C   -0.000004   0.000005   0.000002   0.000409  -0.000090  -0.000024
    13  C   -0.000215  -0.000228  -0.000008   0.025277  -0.000459   0.000665
    14  O    0.000000   0.000002   0.000000  -0.000196   0.000002   0.000098
    15  C   -0.000030   0.000533  -0.000018   0.002416  -0.000076   0.000084
    16  O   -0.000312   0.000149  -0.000001   0.000427  -0.000037   0.000036
    17  C   -0.000332  -0.000500  -0.000489  -0.001254  -0.000066   0.000147
    18  H    0.000000  -0.000000   0.000000   0.000001   0.000000  -0.000000
    19  H   -0.000010   0.000001  -0.000005   0.000000  -0.000000   0.000000
    20  H   -0.000000   0.000000  -0.000000  -0.000058  -0.000000   0.000000
    21  H   -0.000000   0.000000  -0.000000   0.000005  -0.000000   0.000000
    22  H   -0.000000   0.000000  -0.000000  -0.000085  -0.000006   0.000006
    23  H    0.000000  -0.000000   0.000000   0.000040   0.000000  -0.000000
    24  C    0.000165  -0.000104   0.000017  -0.000125  -0.000000   0.000001
    25  H    0.001032  -0.000068   0.000012  -0.000003   0.000000  -0.000000
    26  H   -0.000068   0.000345  -0.000036  -0.000010  -0.000000   0.000000
    27  H    0.000012  -0.000036  -0.000004  -0.000000   0.000000  -0.000000
    28  C   -0.000003  -0.000010  -0.000000   0.007854  -0.000126   0.000343
    29  H    0.000000  -0.000000   0.000000  -0.000126   0.000716  -0.000218
    30  H   -0.000000   0.000000  -0.000000   0.000343  -0.000218   0.001123
    31  H    0.000000  -0.000000   0.000000  -0.001266   0.000237  -0.000263
    32  O   -0.000010   0.000129   0.000029   0.000005   0.000000  -0.000000
              31         32
     1  Mn   0.004860   0.014321
     2  C    0.001083   0.011648
     3  N   -0.000038  -0.001614
     4  N    0.000030   0.001307
     5  C    0.000021   0.000822
     6  C   -0.000001  -0.000961
     7  C    0.000041   0.000435
     8  N    0.000139   0.000092
     9  C    0.000846   0.005898
    10  N   -0.001289  -0.000097
    11  C    0.000094   0.000060
    12  C    0.000052  -0.000123
    13  C   -0.002941  -0.014856
    14  O   -0.000083   0.000725
    15  C    0.000164  -0.002181
    16  O   -0.000786  -0.000621
    17  C   -0.000487  -0.050286
    18  H    0.000000   0.000001
    19  H   -0.000000  -0.000000
    20  H   -0.000000  -0.000075
    21  H   -0.000000  -0.000002
    22  H   -0.000001  -0.000000
    23  H    0.000000   0.000000
    24  C    0.000002  -0.000514
    25  H    0.000000  -0.000010
    26  H   -0.000000   0.000129
    27  H    0.000000   0.000029
    28  C   -0.001266   0.000005
    29  H    0.000237   0.000000
    30  H   -0.000263  -0.000000
    31  H    0.000597   0.000003
    32  O    0.000003   0.045465
 Mulliken charges and spin densities:
               1          2
     1  Mn   0.534658   1.018070
     2  C   -0.613227  -0.041357
     3  N    0.023426   0.008172
     4  N   -0.002609   0.005114
     5  C    0.000690   0.006696
     6  C    0.027560   0.006534
     7  C   -0.109285   0.008987
     8  N    0.029757   0.007988
     9  C   -0.680524  -0.051145
    10  N    0.000944   0.011134
    11  C   -0.005214   0.006283
    12  C    0.044210   0.007710
    13  C   -0.155039   0.030066
    14  O   -0.432111   0.003903
    15  C    0.302923  -0.055362
    16  O   -0.412594  -0.029338
    17  C   -0.020122   0.043441
    18  H    0.200189  -0.000290
    19  H    0.196825  -0.000157
    20  H    0.203746   0.004257
    21  H    0.189571   0.000585
    22  H    0.196676  -0.000291
    23  H    0.199680  -0.000208
    24  C   -0.184506  -0.002093
    25  H    0.183114   0.001057
    26  H    0.185879   0.000063
    27  H    0.177341   0.000017
    28  C   -0.202678  -0.001909
    29  H    0.175580   0.000559
    30  H    0.185579   0.000903
    31  H    0.188978   0.001013
    32  O   -0.429414   0.009598
 Sum of Mulliken charges =  -0.00000   1.00000
 Mulliken charges and spin densities with hydrogens summed into heavy atoms:
               1          2
     1  Mn   0.534658   1.018070
     2  C   -0.613227  -0.041357
     3  N    0.023426   0.008172
     4  N   -0.002609   0.005114
     5  C    0.200879   0.006406
     6  C    0.224386   0.006377
     7  C    0.284032   0.013830
     8  N    0.029757   0.007988
     9  C   -0.680524  -0.051145
    10  N    0.000944   0.011134
    11  C    0.191461   0.005992
    12  C    0.243890   0.007503
    13  C   -0.155039   0.030066
    14  O   -0.432111   0.003903
    15  C    0.302923  -0.055362
    16  O   -0.412594  -0.029338
    17  C   -0.020122   0.043441
    24  C    0.361828  -0.000956
    28  C    0.347458   0.000565
    32  O   -0.429414   0.009598
 Electronic spatial extent (au):  <R**2>=           5025.7443
 Charge=             -0.0000 electrons
 Dipole moment (field-independent basis, Debye):
    X=             -0.0196    Y=             15.1631    Z=              1.7498  Tot=             15.2638
 Quadrupole moment (field-independent basis, Debye-Ang):
   XX=            -98.8454   YY=           -122.7604   ZZ=           -133.5119
   XY=             -0.2410   XZ=              0.3090   YZ=            -11.0945
 Traceless Quadrupole moment (field-independent basis, Debye-Ang):
   XX=             19.5271   YY=             -4.3878   ZZ=            -15.1394
   XY=             -0.2410   XZ=              0.3090   YZ=            -11.0945
 Octapole moment (field-independent basis, Debye-Ang**2):
  XXX=              3.4093  YYY=            129.1391  ZZZ=            -12.3924  XYY=              1.3321
  XXY=             56.4330  XXZ=             71.7997  XZZ=             -4.8378  YZZ=             32.6945
  YYZ=            -11.3663  XYZ=             -1.4768
 Hexadecapole moment (field-independent basis, Debye-Ang**3):
 XXXX=          -2714.3737 YYYY=          -2397.6661 ZZZZ=           -970.9528 XXXY=             -8.5389
 XXXZ=              0.7697 YYYX=             -7.4674 YYYZ=           -126.1552 ZZZX=              1.4097
 ZZZY=              4.5084 XXYY=           -927.2634 XXZZ=           -676.1883 YYZZ=           -662.1154
 XXYZ=            -22.7460 YYXZ=             -0.8394 ZZXY=              9.6637
 N-N= 1.990007870919D+03 E-N=-8.832636289840D+03  KE= 2.049367354744D+03
                          Isotropic Fermi Contact Couplings
        Atom                 a.u.       MegaHertz       Gauss      10(-4) cm-1
     1  Mn(55)             0.09336     103.20023      36.82441      34.42389
     2  C(13)             -0.02039     -22.92216      -8.17920      -7.64601
     3  N(14)              0.00250       0.80821       0.28839       0.26959
     4  N(14)              0.01471       4.75199       1.69563       1.58509
     5  C(13)              0.00058       0.64940       0.23172       0.21662
     6  C(13)             -0.00079      -0.88516      -0.31585      -0.29526
     7  C(13)              0.00152       1.70425       0.60812       0.56848
     8  N(14)              0.01582       5.11044       1.82353       1.70466
     9  C(13)             -0.02033     -22.85760      -8.15616      -7.62448
    10  N(14)              0.00277       0.89641       0.31986       0.29901
    11  C(13)             -0.00067      -0.75759      -0.27033      -0.25270
    12  C(13)              0.00055       0.61830       0.22062       0.20624
    13  C(13)             -0.02355     -26.46978      -9.44507      -8.82937
    14  O(17)              0.00610      -3.69524      -1.31855      -1.23260
    15  C(13)             -0.00964     -10.83417      -3.86590      -3.61389
    16  O(17)              0.02126     -12.88856      -4.59896      -4.29916
    17  C(13)             -0.02361     -26.54277      -9.47112      -8.85371
    18  H(1)              -0.00008      -0.35023      -0.12497      -0.11682
    19  H(1)              -0.00004      -0.17785      -0.06346      -0.05933
    20  H(1)               0.00029       1.31194       0.46813       0.43762
    21  H(1)               0.00008       0.36020       0.12853       0.12015
    22  H(1)              -0.00008      -0.37429      -0.13356      -0.12485
    23  H(1)              -0.00004      -0.19292      -0.06884      -0.06435
    24  C(13)             -0.00012      -0.13884      -0.04954      -0.04631
    25  H(1)               0.00029       1.28024       0.45682       0.42704
    26  H(1)               0.00019       0.86620       0.30908       0.28893
    27  H(1)               0.00001       0.06281       0.02241       0.02095
    28  C(13)             -0.00023      -0.25911      -0.09246      -0.08643
    29  H(1)               0.00023       1.04736       0.37373       0.34936
    30  H(1)               0.00033       1.47806       0.52741       0.49303
    31  H(1)              -0.00004      -0.17440      -0.06223      -0.05817
    32  O(17)              0.00960      -5.81686      -2.07560      -1.94030
 --------------------------------------------------------
       Center         ----  Spin Dipole Couplings  ----
                      3XX-RR        3YY-RR        3ZZ-RR
 --------------------------------------------------------
     1   Atom       -0.774579     -0.031168      0.805747
     2   Atom        0.002457      0.005010     -0.007467
     3   Atom        0.004885     -0.021436      0.016551
     4   Atom       -0.016759      0.004604      0.012156
     5   Atom       -0.005403     -0.000283      0.005686
     6   Atom        0.000798     -0.001379      0.000581
     7   Atom       -0.003887      0.007576     -0.003689
     8   Atom       -0.019619      0.004386      0.015233
     9   Atom       -0.000126      0.005916     -0.005790
    10   Atom        0.001331     -0.023245      0.021914
    11   Atom        0.000613     -0.002051      0.001439
    12   Atom       -0.005539      0.000242      0.005297
    13   Atom       -0.004284     -0.012017      0.016302
    14   Atom       -0.052622     -0.026831      0.079453
    15   Atom       -0.027895      0.037688     -0.009793
    16   Atom       -0.058462      0.077608     -0.019146
    17   Atom       -0.012424     -0.004579      0.017003
    18   Atom       -0.001062      0.002026     -0.000964
    19   Atom        0.000963     -0.000386     -0.000577
    20   Atom       -0.005810      0.007181     -0.001371
    21   Atom       -0.001894      0.003703     -0.001809
    22   Atom        0.000980     -0.000427     -0.000553
    23   Atom       -0.001145      0.002123     -0.000977
    24   Atom        0.003115     -0.001847     -0.001267
    25   Atom        0.001134     -0.001869      0.000735
    26   Atom        0.004804     -0.002861     -0.001943
    27   Atom        0.002183     -0.001249     -0.000934
    28   Atom        0.003153     -0.001273     -0.001880
    29   Atom        0.001269     -0.001421      0.000152
    30   Atom        0.003191     -0.001632     -0.001560
    31   Atom        0.003726     -0.003482     -0.000244
    32   Atom       -0.059231     -0.007641      0.066872
 --------------------------------------------------------
                        XY            XZ            YZ
 --------------------------------------------------------
     1   Atom       -0.106522     -0.009840     -0.948673
     2   Atom        0.009391      0.016512      0.007281
     3   Atom       -0.003515     -0.029929      0.010659
     4   Atom       -0.002655     -0.009631      0.027868
     5   Atom        0.001965      0.000234      0.006574
     6   Atom        0.001648     -0.000897      0.001050
     7   Atom        0.000372      0.000145     -0.000147
     8   Atom        0.005747      0.013717      0.033061
     9   Atom       -0.009583     -0.018255      0.010728
    10   Atom        0.002687      0.031285      0.010776
    11   Atom       -0.001363      0.001957      0.001583
    12   Atom       -0.002229     -0.000992      0.006742
    13   Atom        0.035790      0.010525     -0.020200
    14   Atom        0.050551     -0.016635     -0.085624
    15   Atom       -0.006065      0.002154     -0.043181
    16   Atom       -0.013213      0.004291     -0.063336
    17   Atom       -0.041721     -0.005357     -0.027942
    18   Atom        0.001312      0.000125     -0.000196
    19   Atom        0.001230      0.000936      0.000507
    20   Atom        0.000146     -0.000224     -0.006106
    21   Atom        0.000151     -0.000050     -0.001204
    22   Atom       -0.001313     -0.001008      0.000572
    23   Atom       -0.001273     -0.000180     -0.000227
    24   Atom        0.000389      0.002957      0.000266
    25   Atom        0.000262      0.002771      0.000012
    26   Atom       -0.002002      0.003753     -0.000717
    27   Atom        0.000041      0.001445     -0.000017
    28   Atom       -0.001150     -0.002659     -0.000234
    29   Atom       -0.000273     -0.002027      0.000061
    30   Atom        0.000456     -0.001206     -0.000110
    31   Atom        0.001150     -0.005001     -0.001101
    32   Atom       -0.073903      0.038490     -0.109990
 --------------------------------------------------------


 ---------------------------------------------------------------------------------
              Anisotropic Spin Dipole Couplings in Principal Axis System
 ---------------------------------------------------------------------------------

       Atom             a.u.   MegaHertz   Gauss  10(-4) cm-1        Axes

              Baa    -0.8263  -109.027   -38.904   -36.368  0.8815  0.4059  0.2413
     1 Mn(55) Bbb    -0.5990   -79.028   -28.199   -26.361 -0.4717  0.7323  0.4912
              Bcc     1.4253   188.055    67.103    62.728  0.0227 -0.5468  0.8369
 
              Baa    -0.0197    -2.650    -0.946    -0.884 -0.5935 -0.0116  0.8048
     2 C(13)  Bbb    -0.0030    -0.397    -0.142    -0.133 -0.4543  0.8302 -0.3231
              Bcc     0.0227     3.048     1.087     1.017  0.6644  0.5573  0.4980
 
              Baa    -0.0258    -0.995    -0.355    -0.332 -0.3460  0.8225 -0.4514
     3 N(14)  Bbb    -0.0171    -0.660    -0.235    -0.220  0.7046  0.5455  0.4538
              Bcc     0.0429     1.655     0.591     0.552 -0.6195  0.1611  0.7683
 
              Baa    -0.0233    -0.900    -0.321    -0.300  0.6356 -0.5141  0.5760
     4 N(14)  Bbb    -0.0146    -0.565    -0.202    -0.188  0.7546  0.5713 -0.3228
              Bcc     0.0380     1.465     0.523     0.489 -0.1631  0.6398  0.7510
 
              Baa    -0.0066    -0.887    -0.317    -0.296  0.8066 -0.5275  0.2667
     5 C(13)  Bbb    -0.0034    -0.458    -0.164    -0.153  0.5854  0.6500 -0.4846
              Bcc     0.0100     1.345     0.480     0.449  0.0823  0.5470  0.8331
 
              Baa    -0.0028    -0.377    -0.134    -0.126 -0.4609  0.8058 -0.3718
     6 C(13)  Bbb     0.0010     0.136     0.048     0.045  0.1603  0.4877  0.8582
              Bcc     0.0018     0.241     0.086     0.080  0.8729  0.3359 -0.3539
 
              Baa    -0.0040    -0.534    -0.190    -0.178  0.8851 -0.0344 -0.4641
     7 C(13)  Bbb    -0.0036    -0.485    -0.173    -0.162  0.4643 -0.0038  0.8857
              Bcc     0.0076     1.018     0.363     0.340  0.0322  0.9994 -0.0126
 
              Baa    -0.0276    -1.065    -0.380    -0.355  0.6514  0.4854 -0.5831
     8 N(14)  Bbb    -0.0188    -0.723    -0.258    -0.241  0.7288 -0.6140  0.3031
              Bcc     0.0464     1.788     0.638     0.597  0.2109  0.6224  0.7537
 
              Baa    -0.0216    -2.898    -1.034    -0.967  0.6227 -0.0864  0.7777
     9 C(13)  Bbb    -0.0042    -0.562    -0.201    -0.187  0.5016  0.8069 -0.3120
              Bcc     0.0258     3.460     1.235     1.154  0.6006 -0.5843 -0.5457
 
              Baa    -0.0275    -1.060    -0.378    -0.354  0.3785  0.8250 -0.4196
    10 N(14)  Bbb    -0.0186    -0.717    -0.256    -0.239  0.7273 -0.5455 -0.4165
              Bcc     0.0461     1.778     0.634     0.593  0.5725  0.1475  0.8065
 
              Baa    -0.0037    -0.490    -0.175    -0.163  0.4449  0.7923 -0.4175
    11 C(13)  Bbb     0.0006     0.079     0.028     0.026  0.6733 -0.6033 -0.4275
              Bcc     0.0031     0.411     0.146     0.137  0.5906  0.0909  0.8018
 
              Baa    -0.0066    -0.880    -0.314    -0.294  0.8540  0.4797 -0.2013
    12 C(13)  Bbb    -0.0037    -0.495    -0.177    -0.165 -0.5032  0.6637 -0.5534
              Bcc     0.0102     1.375     0.491     0.459 -0.1319  0.5740  0.8082
 
              Baa    -0.0514    -6.895    -2.460    -2.300 -0.6181  0.7218  0.3115
    13 C(13)  Bbb     0.0199     2.668     0.952     0.890  0.5956  0.1714  0.7848
              Bcc     0.0315     4.228     1.509     1.410  0.5130  0.6706 -0.5358
 
              Baa    -0.1037     7.506     2.678     2.504 -0.6264  0.7264  0.2827
    14 O(17)  Bbb    -0.0318     2.298     0.820     0.766  0.7506  0.4645  0.4699
              Bcc     0.1355    -9.804    -3.498    -3.270 -0.2101 -0.5065  0.8362
 
              Baa    -0.0355    -4.769    -1.702    -1.591  0.1679  0.5110  0.8430
    15 C(13)  Bbb    -0.0281    -3.774    -1.347    -1.259  0.9834 -0.0271 -0.1794
              Bcc     0.0637     8.543     3.048     2.850 -0.0689  0.8591 -0.5071
 
              Baa    -0.0600     4.342     1.549     1.448  0.9754  0.1623  0.1492
    16 O(17)  Bbb    -0.0500     3.621     1.292     1.208 -0.2049  0.4179  0.8851
              Bcc     0.1101    -7.963    -2.841    -2.656 -0.0813  0.8939 -0.4409
 
              Baa    -0.0577    -7.738    -2.761    -2.581  0.6652  0.6824  0.3031
    17 C(13)  Bbb     0.0118     1.589     0.567     0.530 -0.6054  0.2553  0.7539
              Bcc     0.0458     6.149     2.194     2.051 -0.4370  0.6850 -0.5829
 
              Baa    -0.0016    -0.853    -0.304    -0.284  0.8971 -0.3399 -0.2822
    18 H(1)   Bbb    -0.0009    -0.489    -0.174    -0.163  0.2786 -0.0604  0.9585
              Bcc     0.0025     1.341     0.479     0.447  0.3429  0.9385 -0.0405
 
              Baa    -0.0011    -0.600    -0.214    -0.200 -0.5745  0.7749  0.2636
    19 H(1)   Bbb    -0.0010    -0.527    -0.188    -0.176 -0.1612 -0.4228  0.8918
              Bcc     0.0021     1.127     0.402     0.376  0.8025  0.4698  0.3678
 
              Baa    -0.0058    -3.109    -1.109    -1.037  0.9946  0.0347  0.0977
    20 H(1)   Bbb    -0.0045    -2.420    -0.864    -0.807 -0.1027  0.4607  0.8816
              Bcc     0.0104     5.529     1.973     1.844  0.0144  0.8869 -0.4618
 
              Baa    -0.0021    -1.101    -0.393    -0.367  0.1082  0.2004  0.9737
    21 H(1)   Bbb    -0.0019    -1.012    -0.361    -0.337  0.9938 -0.0484 -0.1004
              Bcc     0.0040     2.112     0.754     0.705  0.0270  0.9785 -0.2044
 
              Baa    -0.0012    -0.649    -0.232    -0.216  0.5512  0.8247  0.1266
    22 H(1)   Bbb    -0.0010    -0.549    -0.196    -0.183  0.2557 -0.3114  0.9152
              Bcc     0.0022     1.198     0.427     0.400  0.7942 -0.4721 -0.3825
 
              Baa    -0.0017    -0.891    -0.318    -0.297  0.8870  0.3177  0.3350
    23 H(1)   Bbb    -0.0009    -0.479    -0.171    -0.160 -0.3309 -0.0686  0.9412
              Bcc     0.0026     1.369     0.489     0.457 -0.3220  0.9457 -0.0442
 
              Baa    -0.0028    -0.371    -0.132    -0.124 -0.4446 -0.0708  0.8929
    24 C(13)  Bbb    -0.0019    -0.252    -0.090    -0.084 -0.0959  0.9949  0.0311
              Bcc     0.0046     0.622     0.222     0.208  0.8906  0.0718  0.4492
 
              Baa    -0.0020    -1.084    -0.387    -0.361 -0.4771  0.7395  0.4749
    25 H(1)   Bbb    -0.0017    -0.901    -0.322    -0.301  0.4859  0.6722 -0.5586
              Bcc     0.0037     1.985     0.708     0.662  0.7323  0.0358  0.6800
 
              Baa    -0.0037    -1.965    -0.701    -0.656 -0.4477 -0.3869  0.8061
    26 H(1)   Bbb    -0.0033    -1.736    -0.619    -0.579  0.0178  0.8975  0.4406
              Bcc     0.0069     3.701     1.321     1.235  0.8940 -0.2116  0.3950
 
              Baa    -0.0015    -0.803    -0.286    -0.268 -0.3632  0.1220  0.9237
    27 H(1)   Bbb    -0.0012    -0.665    -0.237    -0.222  0.0371  0.9925 -0.1165
              Bcc     0.0028     1.467     0.524     0.489  0.9310  0.0080  0.3650
 
              Baa    -0.0033    -0.438    -0.156    -0.146  0.4113  0.3371  0.8469
    28 C(13)  Bbb    -0.0012    -0.161    -0.057    -0.054  0.0151  0.9265 -0.3761
              Bcc     0.0045     0.599     0.214     0.200  0.9114 -0.1674 -0.3759
 
              Baa    -0.0015    -0.817    -0.292    -0.273  0.4225  0.7686  0.4804
    29 H(1)   Bbb    -0.0013    -0.691    -0.247    -0.231 -0.4352  0.6369 -0.6364
              Bcc     0.0028     1.509     0.538     0.503  0.7951 -0.0598 -0.6036
 
              Baa    -0.0018    -0.986    -0.352    -0.329  0.2324  0.0044  0.9726
    30 H(1)   Bbb    -0.0017    -0.893    -0.319    -0.298 -0.0892  0.9959  0.0168
              Bcc     0.0035     1.879     0.671     0.627  0.9685  0.0907 -0.2318
 
              Baa    -0.0039    -2.101    -0.750    -0.701  0.2825  0.7449  0.6044
    31 H(1)   Bbb    -0.0034    -1.820    -0.649    -0.607 -0.5030  0.6515 -0.5679
              Bcc     0.0073     3.921     1.399     1.308  0.8168  0.1436 -0.5588
 
              Baa    -0.1210     8.756     3.124     2.921  0.6640  0.6966  0.2718
    32 O(17)  Bbb    -0.0494     3.575     1.276     1.192  0.6783 -0.4083 -0.6108
              Bcc     0.1704   -12.330    -4.400    -4.113  0.3145 -0.5900  0.7437
 

 ---------------------------------------------------------------------------------

 Evaluate density.
 Using the total density.
 Monte-Carlo method of calculating molar volume:
 based on  0.001 e/bohr**3 density envelope.
 Number of points per bohr**3 =   20 CutOff= 1.00D-04
 Using the SCF density.
 There are       456 points.  Will hold       456 in memory.
 LenV=  1073079692 MDV=  1073741824.
 Box volume =11876.350 fraction occupied=0.195
 Integrated density= 1.6512761090674258D+02 error= 4.1276109067425750D+00
 Molar volume = 2317.972 bohr**3/mol (206.853 cm**3/mol)
 Recommended a0 for SCRF calculation =  5.28 angstrom (  9.98 bohr)
 1\1\GINC-GATCHAN82\SP\UB3LYP\6-31+G(d,p)\C12H12Mn1N4O3(2)\GPEY\19-Feb-
 2026\0\\# B3LYP/6-31+G(d,p) empiricaldispersion=GD3 SCRF=(SMD,solvent=
 acetonitrile) SCF=XQC Volume\\Comment - Mn_q0\\0,2\Mn,0,0.011654,-0.92
 3794,0.296503\C,0,-1.38289,0.567607,0.062913\N,0,-2.597387,0.613238,-0
 .552823\N,0,-1.202417,1.847491,0.507407\C,0,-2.266283,2.673435,0.17140
 3\C,0,-3.148379,1.888857,-0.501631\C,0,-0.016622,2.240235,1.250323\N,0
 ,1.174567,1.871254,0.502712\C,0,1.373901,0.598581,0.044504\N,0,2.58616
 8,0.670018,-0.573524\C,0,3.125583,1.948857,-0.494729\C,0,2.230507,2.71
 3595,0.184448\C,0,1.321653,-1.987619,0.925929\O,0,2.159438,-2.700333,1
 .337218\C,0,-0.092343,-1.698796,-1.321415\O,0,-0.165434,-2.244261,-2.3
 60153\C,0,-1.209144,-1.945345,1.136399\H,0,-2.299526,3.716448,0.446524
 \H,0,-4.106165,2.11712,-0.943774\H,0,-0.009483,1.723054,2.212752\H,0,-
 0.026908,3.317954,1.403066\H,0,4.080202,2.196223,-0.933392\H,0,2.24495
 3,3.755854,0.464085\C,0,-3.220824,-0.496613,-1.267481\H,0,-2.993159,-0
 .433986,-2.33564\H,0,-2.8353,-1.435045,-0.874066\H,0,-4.302113,-0.4533
 88,-1.12269\C,0,3.270147,-0.450471,-1.211551\H,0,3.79604,-0.092009,-2.
 098789\H,0,3.988343,-0.900193,-0.520142\H,0,2.530677,-1.196204,-1.4993
 97\O,0,-1.993664,-2.624023,1.688912\\Version=ES64L-G16RevA.03\State=2-
 A\HF=-2060.2377045\S2=0.767538\S2-1=0.\S2A=0.750243\RMSD=4.147e-09\Dip
 ole=0.0077213,5.9656379,-0.6884402\Quadrupole=14.5179439,-3.2622062,-1
 1.2557376,0.179212,0.2297317,8.248519\PG=C01 [X(C12H12Mn1N4O3)]\\@


 A warm smile is the universal language of kindness.
                             -- William Arthur Ward
 Job cpu time:       0 days  0 hours 53 minutes 43.0 seconds.
 Elapsed time:       0 days  0 hours  6 minutes 43.7 seconds.
 File lengths (MBytes):  RWF=    327 Int=      0 D2E=      0 Chk=     17 Scr=      1
 Normal termination of Gaussian 16 at Thu Feb 19 09:06:46 2026.
